version 3
run General-3-20231014-16:43:56-3313
attr configname General
attr datetime 20231014-16:43:56
attr datetimef 20231014-164356
attr experiment General
attr inifile omnetpp.ini
attr iterationvars ""
attr iterationvarsd ""
attr iterationvarsf ""
attr measurement ""
attr network Reliability
attr processid 3313
attr repetition 3
attr replication #3
attr resultdir results
attr runnumber 3
attr seedset 3
config network Reliability
config Reliability.node[*].transmissionTime "uniform(1s, 2s)"
config Reliability.node[*].delayTime "uniform(0.01s, 0.2s)"
config Reliability.node[0].lossProbability 0.5
config Reliability.node[1].lossProbability 0.6
config Reliability.node[2].lossProbability 0.7
config Reliability.node[3].lossProbability 0.1
config Reliability.node[4].lossProbability 0.2
config Reliability.node[5].lossProbability 0.1
config record-eventlog true
config sim-time-limit 240s
config repeat 5

vector 0 Reliability.node[0] txVector ETV
vector 1 Reliability.node[1] rxVector ETV
vector 2 Reliability.node[1] txVector ETV
vector 3 Reliability.node[3] rxVector ETV
vector 4 Reliability.node[3] txVector ETV
vector 5 Reliability.node[4] rxVector ETV
vector 6 Reliability.node[4] txVector ETV
vector 7 Reliability.node[5] rxVector ETV
vector 8 Reliability.node[2] rxVector ETV
vector 9 Reliability.node[2] txVector ETV
0	0	0	1
0	1	0.114651601831	2
0	3	1.185376482154	3
0	6	2.306705061416	4
0	7	3.432290377398	5
0	8	4.639533256018	6
0	9	5.691000463977	7
0	11	7.131810302451	8
0	12	8.588643525099	9
0	13	10.237787576696	10
0	14	11.516274860665	11
0	15	13.192529764097	12
0	20	14.783392575174	13
0	21	16.066917661415	14
0	23	17.760055580945	15
0	24	18.916923321621	16
0	29	20.461572334241	17
0	30	22.397955987207	18
0	31	24.373951415136	19
0	32	26.046335093747	20
0	34	27.949169196258	21
0	35	29.32716324164	22
0	36	30.419380253017	23
0	41	32.072791151306	24
0	46	33.541731396759	25
0	51	35.127984298462	26
0	52	36.329363012755	27
0	55	37.843398066539	28
0	60	39.205738525208	29
0	62	41.049525620485	30
0	64	42.589645221899	31
0	65	44.111249558697	32
0	66	45.253848905046	33
0	67	46.556112518603	34
0	69	48.363135193544	35
0	72	49.384360933746	36
0	74	50.859449540335	37
0	76	51.926418962959	38
0	77	53.125394988177	39
0	80	54.277255980834	40
0	81	55.393472571229	41
0	84	56.479473286611	42
0	86	58.18665388932	43
0	88	60.113379573985	44
0	93	61.839699072135	45
0	95	63.753674334218	46
0	97	65.119614919019	47
0	99	66.315995496768	48
0	100	68.041665121285	49
0	103	69.826601820603	50
0	104	71.295983132977	51
0	105	72.798513349216	52
0	110	73.970876248624	53
0	111	75.543113868521	54
0	112	76.885533455364	55
0	117	78.495179170115	56
0	118	79.752385548154	57
0	122	81.029027094903	58
0	124	82.68125021977	59
0	126	84.116770771869	60
0	127	85.174502259657	61
0	129	86.257373274375	62
0	134	87.798134109775	63
0	136	89.693704439165	64
0	140	90.75837763243	65
0	144	91.839948674968	66
0	145	93.566638429488	67
0	149	94.706105556411	68
0	152	96.202770510993	69
0	154	97.570473493847	70
0	156	98.811043808541	71
0	157	100.776271957277	72
0	158	102.475081959578	73
0	160	103.957578998131	74
0	162	105.791266882398	75
0	164	106.883398472869	76
0	167	108.715159562721	77
0	168	109.946620593385	78
0	170	111.390208272335	79
0	172	113.1725922514	80
0	174	114.553521122622	81
0	179	115.659180327157	82
0	181	117.069271661878	83
0	182	118.091367476225	84
0	184	119.313743795805	85
0	186	121.09650132626	86
0	188	122.573433090539	87
0	190	123.94191335568	88
0	191	125.744741325805	89
0	192	127.645512130883	90
0	194	129.006595905943	91
0	195	130.312723202238	92
0	196	131.596412652012	93
0	198	132.809306987634	94
0	199	133.935128027413	95
0	200	135.928051584473	96
0	201	137.361585875813	97
0	206	138.978291162595	98
0	207	140.766880298804	99
0	209	142.384334480928	100
0	210	143.508956231016	101
0	211	144.539885427409	102
0	212	145.771983816826	103
0	213	146.784739308131	104
0	214	148.059376777687	105
0	215	150.001291141218	106
0	216	151.278059057497	107
0	221	152.353847262288	108
0	222	153.969036718436	109
0	223	155.149777047407	110
0	224	156.893606458629	111
0	226	158.259088130739	112
0	227	160.052410808929	113
0	229	161.686714278606	114
0	230	163.324767160068	115
0	232	164.979901071011	116
0	233	166.511364201388	117
0	235	167.689903035366	118
0	237	168.714928317887	119
0	238	170.041192323274	120
0	239	171.625122415905	121
0	240	172.725700128663	122
0	242	174.227623472063	123
0	243	175.297993231405	124
0	246	177.136896638971	125
0	250	178.872590026425	126
0	252	180.716865658367	127
0	257	182.573483816886	128
0	259	184.20825703589	129
0	262	185.399540327096	130
0	265	186.619876658151	131
0	266	187.806827653505	132
0	268	189.481158028662	133
0	270	191.197073728151	134
0	272	192.285651584228	135
0	273	194.200032023087	136
0	278	195.964186266137	137
0	281	197.382409073485	138
0	286	198.950311246401	139
0	291	200.076748546053	140
0	293	201.867602727682	141
0	298	202.951683404463	142
0	299	204.509050793321	143
0	301	206.377605425268	144
0	303	207.912581004742	145
0	304	209.002076000049	146
0	306	210.434001317322	147
0	309	211.571811210206	148
0	311	212.7364107583	149
0	313	213.993453355348	150
0	315	215.949476511525	151
0	317	217.574984905152	152
0	319	219.472145750961	153
0	322	220.963207062176	154
0	323	222.500641438487	155
0	325	224.496427747264	156
0	327	225.799247581588	157
0	328	226.838609029848	158
0	329	228.585280124174	159
0	330	230.158701404539	160
0	331	231.89040708107	161
0	333	233.441239680006	162
0	336	234.787641379126	163
0	337	236.388439961086	164
0	342	237.424098113627	165
0	343	238.752334466512	166
0	345	239.838578084093	167
1	4	1.313545634032	1
1	16	13.217086321903	2
1	25	19.085183126384	3
1	37	30.545369998144	4
1	42	32.143945911549	5
1	47	33.615594090269	6
1	53	36.365936592595	7
1	56	37.961456044227	8
1	70	48.474799896027	9
1	78	53.164414813552	10
1	82	55.539941246671	11
1	89	60.224625164995	12
1	101	68.246363809831	13
1	106	72.875210651439	14
1	113	76.9284507552	15
1	119	79.820216435165	16
1	130	86.4364911357	17
1	137	89.8778871764	18
1	141	90.836837540782	19
1	146	93.646264060772	20
1	150	94.859816099438	21
1	165	107.064576213092	22
1	175	114.656931635739	23
1	202	137.567610554242	24
1	217	151.350185969012	25
1	244	175.449145703291	26
1	247	177.277101235192	27
1	253	180.888167601333	28
1	260	184.33586951622	29
1	263	185.467407084301	30
1	274	194.25910353794	31
1	279	196.169425548879	32
1	282	197.424246197623	33
1	287	198.984165493418	34
1	294	202.007533028879	35
1	307	210.454405173869	36
1	320	219.634611635903	37
1	334	233.570388877262	38
1	338	236.487027569095	39
2	4	1.313545634032	1
2	16	13.217086321903	2
2	25	19.085183126384	3
2	37	30.545369998144	4
2	42	32.143945911549	5
2	47	33.615594090269	6
2	53	36.365936592595	7
2	56	37.961456044227	8
2	70	48.474799896027	9
2	78	53.164414813552	10
2	82	55.539941246671	11
2	89	60.224625164995	12
2	101	68.246363809831	13
2	106	72.875210651439	14
2	113	76.9284507552	15
2	119	79.820216435165	16
2	130	86.4364911357	17
2	137	89.8778871764	18
2	141	90.836837540782	19
2	146	93.646264060772	20
2	150	94.859816099438	21
2	165	107.064576213092	22
2	175	114.656931635739	23
2	202	137.567610554242	24
2	217	151.350185969012	25
2	244	175.449145703291	26
2	247	177.277101235192	27
2	253	180.888167601333	28
2	260	184.33586951622	29
2	263	185.467407084301	30
2	274	194.25910353794	31
2	279	196.169425548879	32
2	282	197.424246197623	33
2	287	198.984165493418	34
2	294	202.007533028879	35
2	307	210.454405173869	36
2	320	219.634611635903	37
2	334	233.570388877262	38
2	338	236.487027569095	39
3	17	13.422079493404	1
3	26	19.154124331817	2
3	38	30.569762336174	3
3	43	32.202583272035	4
3	48	33.706677788616	5
3	114	76.975683894944	6
3	120	79.931222311856	7
3	131	86.644837322674	8
3	138	90.053123894982	9
3	142	90.994996434486	10
3	203	137.658444739858	11
3	218	151.480037007901	12
3	275	194.428981682835	13
3	283	197.556816250291	14
3	288	199.15449173569	15
3	295	202.136048797896	16
4	17	13.422079493404	1
4	26	19.154124331817	2
4	38	30.569762336174	3
4	43	32.202583272035	4
4	48	33.706677788616	5
4	114	76.975683894944	6
4	120	79.931222311856	7
4	131	86.644837322674	8
4	138	90.053123894982	9
4	142	90.994996434486	10
4	203	137.658444739858	11
4	218	151.480037007901	12
4	275	194.428981682835	13
4	283	197.556816250291	14
4	288	199.15449173569	15
4	295	202.136048797896	16
5	18	13.518528015446	1
5	27	19.343806702025	2
5	39	30.649758113369	3
5	44	32.346773134004	4
5	49	33.740965810219	5
5	58	38.263707978569	6
5	91	60.477931307017	7
5	108	73.093881631855	8
5	115	77.074368009974	9
5	132	86.694794576199	10
5	177	114.942339722009	11
5	204	137.796004690724	12
5	219	151.63204235284	13
5	255	181.140489629556	14
5	276	194.619172193045	15
5	284	197.747258335776	16
5	289	199.182757893466	17
5	296	202.290940573281	18
5	340	236.561207629459	19
6	18	13.518528015446	1
6	27	19.343806702025	2
6	39	30.649758113369	3
6	44	32.346773134004	4
6	49	33.740965810219	5
6	58	38.263707978569	6
6	91	60.477931307017	7
6	108	73.093881631855	8
6	115	77.074368009974	9
6	132	86.694794576199	10
6	177	114.942339722009	11
6	204	137.796004690724	12
6	219	151.63204235284	13
6	255	181.140489629556	14
6	276	194.619172193045	15
6	284	197.747258335776	16
6	289	199.182757893466	17
6	296	202.290940573281	18
6	340	236.561207629459	19
7	19	13.643554685663	1
7	28	19.500306886815	2
7	40	30.776684431676	3
7	45	32.492683524545	4
7	50	33.905475723381	5
7	59	38.35469200114	6
7	92	60.668265672033	7
7	109	73.155298928016	8
7	116	77.103698705732	9
7	133	86.804221112645	10
7	178	115.095436960405	11
7	205	137.845881174834	12
7	220	151.726324376065	13
7	256	181.247959644927	14
7	277	194.68670809164	15
7	285	197.871440658984	16
7	290	199.254539248886	17
7	297	202.372018866798	18
7	341	236.604135892711	19
8	57	38.11276369943	1
8	90	60.311110957151	2
8	107	72.987378553886	3
8	147	93.725156771363	4
8	176	114.742119468867	5
8	248	177.48606004027	6
8	254	180.992891282309	7
8	339	236.533300657939	8
9	57	38.11276369943	1
9	90	60.311110957151	2
9	107	72.987378553886	3
9	147	93.725156771363	4
9	176	114.742119468867	5
9	248	177.48606004027	6
9	254	180.992891282309	7
9	339	236.533300657939	8

