version 3
run General-2-20231014-16:43:56-3313
attr configname General
attr datetime 20231014-16:43:56
attr datetimef 20231014-164356
attr experiment General
attr inifile omnetpp.ini
attr iterationvars ""
attr iterationvarsd ""
attr iterationvarsf ""
attr measurement ""
attr network Reliability
attr processid 3313
attr repetition 2
attr replication #2
attr resultdir results
attr runnumber 2
attr seedset 2
config network Reliability
config Reliability.node[*].transmissionTime "uniform(1s, 2s)"
config Reliability.node[*].delayTime "uniform(0.01s, 0.2s)"
config Reliability.node[0].lossProbability 0.5
config Reliability.node[1].lossProbability 0.6
config Reliability.node[2].lossProbability 0.7
config Reliability.node[3].lossProbability 0.1
config Reliability.node[4].lossProbability 0.2
config Reliability.node[5].lossProbability 0.1
config record-eventlog true
config sim-time-limit 240s
config repeat 5

vector 0 Reliability.node[0] txVector ETV
vector 1 Reliability.node[1] rxVector ETV
vector 2 Reliability.node[1] txVector ETV
vector 3 Reliability.node[3] rxVector ETV
vector 4 Reliability.node[3] txVector ETV
vector 5 Reliability.node[4] rxVector ETV
vector 6 Reliability.node[4] txVector ETV
vector 7 Reliability.node[5] rxVector ETV
vector 8 Reliability.node[2] rxVector ETV
vector 9 Reliability.node[2] txVector ETV
0	0	0	1
0	1	0.092839031499	2
0	2	1.277921112972	3
0	4	3.20946197656	4
0	5	4.694211072773	5
0	6	6.014747509053	6
0	7	7.169174184576	7
0	9	8.86803687389	8
0	10	10.35321278872	9
0	12	11.98595051935	10
0	13	13.668976514387	11
0	15	15.167537682011	12
0	19	16.887291912941	13
0	21	17.96693738389	14
0	22	19.032223887529	15
0	23	20.460346218684	16
0	24	21.556877140208	17
0	25	22.684037111952	18
0	27	24.280782419975	19
0	29	25.38772810462	20
0	30	26.737554390003	21
0	31	28.205341875107	22
0	32	29.407085102071	23
0	35	31.047491828465	24
0	37	32.660521522184	25
0	38	33.7800063214	26
0	41	34.928571101764	27
0	43	36.818091160871	28
0	44	38.385235288434	29
0	46	39.812781252686	30
0	47	41.589340440717	31
0	48	43.124944617294	32
0	51	45.078686839689	33
0	53	46.901571474757	34
0	54	48.122569629244	35
0	55	49.869201042244	36
0	56	51.300738812212	37
0	61	53.189042558681	38
0	62	54.670064313823	39
0	63	56.630378043765	40
0	65	58.056400570806	41
0	66	59.818330569679	42
0	68	61.75095913049	43
0	70	63.268389891621	44
0	71	64.822023737498	45
0	72	66.395666235846	46
0	77	67.78959952716	47
0	78	69.002532769248	48
0	80	70.364560175941	49
0	82	71.727886067259	50
0	83	73.495374325917	51
0	84	75.409849897747	52
0	85	77.23621790346	53
0	90	78.647964344148	54
0	95	80.294978569981	55
0	97	81.887474933194	56
0	102	83.419619373998	57
0	104	85.018599346534	58
0	105	86.38720688808	59
0	107	87.603013285457	60
0	108	89.40123387405	61
0	109	90.955773347545	62
0	111	92.850919086275	63
0	116	94.828552477083	64
0	118	96.666383025025	65
0	123	97.987701608588	66
0	124	99.839990568834	67
0	125	101.052757939811	68
0	127	102.052881523988	69
0	128	103.227997913047	70
0	129	104.742857080207	71
0	130	106.622847431361	72
0	131	108.407639354256	73
0	132	109.937460530105	74
0	133	111.211298399626	75
0	136	112.237682545812	76
0	138	113.286550632234	77
0	139	114.929862059442	78
0	140	116.091328626288	79
0	145	117.961474519478	80
0	147	118.99272208081	81
0	148	120.697349580958	82
0	149	121.784912090072	83
0	151	122.81550156793	84
0	154	124.405283559369	85
0	155	125.763523867143	86
0	157	126.782508995173	87
0	159	127.812877247132	88
0	161	128.815459821628	89
0	164	130.402634023012	90
0	166	131.609683857554	91
0	169	133.054258120268	92
0	170	134.789609514431	93
0	171	135.975199250526	94
0	174	137.1072910086	95
0	176	138.610069756185	96
0	181	139.941943466685	97
0	182	141.790627985749	98
0	184	143.235198926901	99
0	185	144.243647291813	100
0	187	145.268848715372	101
0	188	146.370986665388	102
0	190	148.03295445328	103
0	191	149.233796801673	104
0	196	150.622130979573	105
0	197	152.123347434703	106
0	202	153.62943426289	107
0	203	155.50599613136	108
0	208	157.183580970879	109
0	209	158.31497557836	110
0	210	159.661605599126	111
0	211	160.870108093623	112
0	212	162.737489635147	113
0	214	164.529819851531	114
0	215	166.098960385448	115
0	216	167.904091925616	116
0	217	169.737253168621	117
0	219	170.94304684645	118
0	221	172.746461011958	119
0	226	173.853648412064	120
0	228	175.566655702213	121
0	229	176.89740273056	122
0	231	178.126012981193	123
0	232	179.540492230117	124
0	233	181.477273304736	125
0	234	183.119725730292	126
0	235	184.506626075388	127
0	236	186.36174574287	128
0	237	187.742538323881	129
0	239	188.920848149829	130
0	241	190.393056738213	131
0	246	192.085455981106	132
0	247	193.205495773372	133
0	248	195.04439837092	134
0	250	196.506137273995	135
0	251	198.042480745608	136
0	254	199.338993497914	137
0	255	200.54561224908	138
0	257	201.970021613896	139
0	259	203.821693887724	140
0	260	205.184988533635	141
0	263	206.521281504561	142
0	266	208.174188453727	143
0	267	209.902251393324	144
0	270	211.120158714731	145
0	272	212.443909299117	146
0	273	214.438859561714	147
0	275	216.265010377881	148
0	276	217.998680174374	149
0	277	219.873948989226	150
0	278	221.825459140841	151
0	280	223.677722067129	152
0	281	224.751220451923	153
0	282	226.374605168145	154
0	283	227.727819063956	155
0	284	228.892597686755	156
0	285	230.785763872112	157
0	286	232.610654358775	158
0	288	234.137292783265	159
0	289	235.626594077121	160
0	291	236.887314094953	161
0	292	238.3239839806	162
0	293	239.339040115034	163
1	16	15.236652317491	1
1	33	29.518868370101	2
1	39	33.961939717682	3
1	49	43.248344166835	4
1	57	51.499565539755	5
1	73	66.59171011806	6
1	86	77.376078008125	7
1	91	78.84995502179	8
1	98	82.091450141929	9
1	112	93.045285643414	10
1	119	96.761861283556	11
1	134	111.396543037649	12
1	141	116.152635086576	13
1	152	122.845423885548	14
1	162	129.023936828956	15
1	167	131.726131179264	16
1	172	135.997093912659	17
1	177	138.721546806161	18
1	192	149.429718105128	19
1	198	152.184923383443	20
1	204	155.686039409706	21
1	222	172.849126905335	22
1	242	190.599348902979	23
1	252	198.095868341612	24
1	261	205.28216243568	25
1	264	206.63205141131	26
1	268	210.080894905575	27
2	16	15.236652317491	1
2	33	29.518868370101	2
2	39	33.961939717682	3
2	49	43.248344166835	4
2	57	51.499565539755	5
2	73	66.59171011806	6
2	86	77.376078008125	7
2	91	78.84995502179	8
2	98	82.091450141929	9
2	112	93.045285643414	10
2	119	96.761861283556	11
2	134	111.396543037649	12
2	141	116.152635086576	13
2	152	122.845423885548	14
2	162	129.023936828956	15
2	167	131.726131179264	16
2	172	135.997093912659	17
2	177	138.721546806161	18
2	192	149.429718105128	19
2	198	152.184923383443	20
2	204	155.686039409706	21
2	222	172.849126905335	22
2	242	190.599348902979	23
2	252	198.095868341612	24
2	261	205.28216243568	25
2	264	206.63205141131	26
2	268	210.080894905575	27
3	17	15.350557317167	1
3	58	51.671614626361	2
3	74	66.683760125721	3
3	87	77.417505489099	4
3	92	78.910735813901	5
3	99	82.136901442178	6
3	142	116.182417842712	7
3	178	138.909854012387	8
3	193	149.595968129089	9
3	199	152.285858585891	10
3	205	155.837636994951	11
3	243	190.66173839987	12
4	17	15.350557317167	1
4	58	51.671614626361	2
4	74	66.683760125721	3
4	87	77.417505489099	4
4	92	78.910735813901	5
4	99	82.136901442178	6
4	142	116.182417842712	7
4	178	138.909854012387	8
4	193	149.595968129089	9
4	199	152.285858585891	10
4	205	155.837636994951	11
4	243	190.66173839987	12
5	59	51.80595987887	1
5	75	66.706233419941	2
5	88	77.497024608448	3
5	93	79.009918966913	4
5	100	82.321995601887	5
5	114	93.360750114993	6
5	121	96.884024561528	7
5	143	116.320839585994	8
5	179	138.959031490597	9
5	194	149.699831968007	10
5	200	152.371617234238	11
5	206	155.922966575041	12
5	224	173.212779811567	13
5	244	190.824286519871	14
6	59	51.80595987887	1
6	75	66.706233419941	2
6	88	77.497024608448	3
6	93	79.009918966913	4
6	100	82.321995601887	5
6	114	93.360750114993	6
6	121	96.884024561528	7
6	143	116.320839585994	8
6	179	138.959031490597	9
6	194	149.699831968007	10
6	200	152.371617234238	11
6	206	155.922966575041	12
6	224	173.212779811567	13
6	244	190.824286519871	14
7	60	51.971302252825	1
7	76	66.877740359206	2
7	89	77.524966172751	3
7	94	79.152248933562	4
7	101	82.484263398752	5
7	115	93.414325425481	6
7	122	96.925035359243	7
7	144	116.395230743821	8
7	180	139.158903374073	9
7	195	149.882940952786	10
7	201	152.494061930425	11
7	207	156.052364584832	12
7	225	173.267603920565	13
7	245	190.930561398007	14
8	113	93.222273110487	1
8	120	96.828565404169	2
8	223	173.012769376691	3
9	113	93.222273110487	1
9	120	96.828565404169	2
9	223	173.012769376691	3

