version 3
run General-1-20231014-16:43:56-3313
attr configname General
attr datetime 20231014-16:43:56
attr datetimef 20231014-164356
attr experiment General
attr inifile omnetpp.ini
attr iterationvars ""
attr iterationvarsd ""
attr iterationvarsf ""
attr measurement ""
attr network Reliability
attr processid 3313
attr repetition 1
attr replication #1
attr resultdir results
attr runnumber 1
attr seedset 1
config network Reliability
config Reliability.node[*].transmissionTime "uniform(1s, 2s)"
config Reliability.node[*].delayTime "uniform(0.01s, 0.2s)"
config Reliability.node[0].lossProbability 0.5
config Reliability.node[1].lossProbability 0.6
config Reliability.node[2].lossProbability 0.7
config Reliability.node[3].lossProbability 0.1
config Reliability.node[4].lossProbability 0.2
config Reliability.node[5].lossProbability 0.1
config record-eventlog true
config sim-time-limit 240s
config repeat 5

vector 0 Reliability.node[0] txVector ETV
vector 1 Reliability.node[1] rxVector ETV
vector 2 Reliability.node[1] txVector ETV
vector 3 Reliability.node[3] rxVector ETV
vector 4 Reliability.node[3] txVector ETV
vector 5 Reliability.node[4] rxVector ETV
vector 6 Reliability.node[4] txVector ETV
vector 7 Reliability.node[5] rxVector ETV
vector 8 Reliability.node[2] rxVector ETV
vector 9 Reliability.node[2] txVector ETV
0	0	0	1
0	1	0.089234179703	2
0	3	2.086418987836	3
0	4	3.214543435608	4
0	5	5.213583951003	5
0	6	6.449672927267	6
0	7	7.846253653408	7
0	8	9.234164393625	8
0	9	10.903910433992	9
0	11	12.839449506604	10
0	13	14.152723019595	11
0	15	15.596175913351	12
0	17	17.130589820562	13
0	19	18.587794629742	14
0	20	20.526922424675	15
0	23	22.305311660168	16
0	26	23.997634277099	17
0	27	25.82723764179	18
0	28	27.100287619165	19
0	30	28.159530816252	20
0	31	29.752596333042	21
0	33	31.424250424724	22
0	35	32.621801318252	23
0	38	33.763921451173	24
0	41	35.514065763564	25
0	43	36.960200264235	26
0	44	38.033564438461	27
0	46	39.502802963252	28
0	47	41.406173134572	29
0	48	42.525663608336	30
0	49	44.050462991349	31
0	51	45.134085996659	32
0	52	47.044534376474	33
0	53	48.34346448735	34
0	54	49.927853611183	35
0	56	51.493765639725	36
0	59	53.450301298524	37
0	61	54.864357284621	38
0	66	56.278536550819	39
0	67	58.223131309382	40
0	69	59.809686348194	41
0	70	60.947161050865	42
0	72	62.086437394263	43
0	75	63.484114228168	44
0	78	65.055122790278	45
0	80	66.678794996466	46
0	82	68.027693335086	47
0	87	69.923579550467	48
0	89	71.038325520351	49
0	90	72.488237653512	50
0	92	74.066627260882	51
0	95	75.303654236838	52
0	97	77.076393380182	53
0	102	78.655027312113	54
0	103	80.12241999747	55
0	106	81.391421047158	56
0	107	82.563761557804	57
0	109	83.70089730772	58
0	110	85.397715470407	59
0	111	86.463715643974	60
0	113	88.219178695817	61
0	114	90.142203236584	62
0	116	91.853727993442	63
0	117	92.873608125493	64
0	118	93.899819112735	65
0	120	94.928125601847	66
0	121	96.788153552337	67
0	122	98.326984618444	68
0	124	99.879806591783	69
0	125	101.003979908888	70
0	126	102.283163589545	71
0	128	103.868922857454	72
0	129	105.429953077229	73
0	131	106.448600367297	74
0	136	107.681574640682	75
0	137	109.237814878	76
0	138	110.374270105155	77
0	139	111.434187800044	78
0	142	112.55553125113	79
0	144	114.171860193952	80
0	145	115.826183965548	81
0	146	116.95595357835	82
0	148	118.250313050232	83
0	149	119.524958203432	84
0	150	120.598927201356	85
0	152	121.75106435863	86
0	157	123.689776056564	87
0	162	124.894134180738	88
0	163	125.933817682673	89
0	165	127.747694044492	90
0	166	129.202976514471	91
0	168	130.73480296077	92
0	169	131.880835704392	93
0	172	133.389624443025	94
0	173	134.654544001332	95
0	175	135.720878834025	96
0	176	137.350596342589	97
0	177	138.56077035482	98
0	178	140.313525913171	99
0	179	141.380062395595	100
0	180	142.640377497654	101
0	181	144.445132063124	102
0	183	145.638566343933	103
0	186	147.163236650526	104
0	189	148.89124829078	105
0	191	150.823220358117	106
0	196	152.057582444398	107
0	197	153.973188799925	108
0	199	155.614755006626	109
0	200	157.10074567667	110
0	201	158.705056166162	111
0	202	160.254604085467	112
0	204	162.180785512437	113
0	206	163.57566112641	114
0	207	164.749616792078	115
0	208	165.875946312562	116
0	210	167.011025468005	117
0	211	168.032550276142	118
0	213	169.980520486949	119
0	214	170.995539466735	120
0	215	172.171735727113	121
0	220	173.503799299827	122
0	222	175.08581347915	123
0	223	176.930547924364	124
0	225	178.835940236343	125
0	226	180.382287052577	126
0	228	182.180890640827	127
0	230	183.671144163121	128
0	232	184.686677436928	129
0	233	186.120353790584	130
0	235	187.927714315361	131
0	237	189.820603019909	132
0	238	191.004613225234	133
0	240	192.792542459329	134
0	241	193.846451733846	135
0	242	195.266645414408	136
0	243	196.945714251723	137
0	248	198.864316029826	138
0	249	200.469032130556	139
0	250	202.297877940235	140
0	251	203.87258944812	141
0	252	205.500665650356	142
0	257	206.786241927536	143
0	259	208.484299176492	144
0	260	209.806980177181	145
0	261	211.477768968212	146
0	262	212.928642903109	147
0	263	214.310745653816	148
0	264	215.721557006825	149
0	266	217.123036592387	150
0	268	218.744955961014	151
0	269	220.718758042323	152
0	271	222.396558930751	153
0	272	223.823259942586	154
0	273	225.166606182119	155
0	274	226.964244989099	156
0	279	228.844243276052	157
0	282	230.699141220774	158
0	284	231.782687567526	159
0	286	233.226495550831	160
0	287	234.293527601638	161
0	288	236.105299115299	162
0	289	237.741589728861	163
0	290	239.514440159664	164
1	21	20.682956821736	1
1	24	22.491825597924	2
1	36	32.790631068033	3
1	39	33.971805057794	4
1	57	51.563351646189	5
1	62	54.893848441799	6
1	73	62.137854691101	7
1	76	63.625303159112	8
1	83	68.129030661241	9
1	93	74.258269369006	10
1	98	77.098104899324	11
1	104	80.300441589465	12
1	132	106.621950353641	13
1	140	111.462652656245	14
1	153	121.841579798748	15
1	158	123.896309817216	16
1	170	131.941809256708	17
1	184	145.834279857825	18
1	187	147.282556609241	19
1	192	150.960408245496	20
1	216	172.216625127479	21
1	244	196.965790636109	22
1	253	205.632163984491	23
1	275	227.155974959732	24
1	280	228.964509058607	25
2	21	20.682956821736	1
2	24	22.491825597924	2
2	36	32.790631068033	3
2	39	33.971805057794	4
2	57	51.563351646189	5
2	62	54.893848441799	6
2	73	62.137854691101	7
2	76	63.625303159112	8
2	83	68.129030661241	9
2	93	74.258269369006	10
2	98	77.098104899324	11
2	104	80.300441589465	12
2	132	106.621950353641	13
2	140	111.462652656245	14
2	153	121.841579798748	15
2	158	123.896309817216	16
2	170	131.941809256708	17
2	184	145.834279857825	18
2	187	147.282556609241	19
2	192	150.960408245496	20
2	216	172.216625127479	21
2	244	196.965790636109	22
2	253	205.632163984491	23
2	275	227.155974959732	24
2	280	228.964509058607	25
3	63	54.922464129554	1
3	84	68.151247808163	2
3	99	77.18598615381	3
3	154	122.022477270646	4
3	159	123.946100182186	5
3	193	151.055954388116	6
3	217	172.338156821459	7
3	245	197.135161461127	8
3	276	227.274317817316	9
4	63	54.922464129554	1
4	84	68.151247808163	2
4	99	77.18598615381	3
4	154	122.022477270646	4
4	159	123.946100182186	5
4	193	151.055954388116	6
4	217	172.338156821459	7
4	245	197.135161461127	8
4	276	227.274317817316	9
5	64	54.969057692401	1
5	85	68.265888531353	2
5	100	77.378607831447	3
5	134	106.88591908431	4
5	155	122.0880483457	5
5	160	123.969629659899	6
5	194	151.251742408631	7
5	218	172.41163740693	8
5	246	197.20355498312	9
5	255	205.693290767539	10
5	277	227.297445742565	11
6	64	54.969057692401	1
6	85	68.265888531353	2
6	100	77.378607831447	3
6	134	106.88591908431	4
6	155	122.0880483457	5
6	160	123.969629659899	6
6	194	151.251742408631	7
6	218	172.41163740693	8
6	246	197.20355498312	9
6	255	205.693290767539	10
6	277	227.297445742565	11
7	65	55.139614372454	1
7	86	68.299909013445	2
7	101	77.517046253671	3
7	135	106.987203484998	4
7	156	122.20186459121	5
7	161	124.002933867415	6
7	195	151.310409368998	7
7	219	172.499008497357	8
7	247	197.239183415693	9
7	256	205.863276737393	10
7	278	227.37421778512	11
8	133	106.723063220138	1
8	254	205.666361524132	2
9	133	106.723063220138	1
9	254	205.666361524132	2

