version 3
run General-4-20231018-20:19:12-22348
attr configname General
attr datetime 20231018-20:19:12
attr datetimef 20231018-201912
attr experiment General
attr inifile omnetpp.ini
attr iterationvars ""
attr iterationvarsd ""
attr iterationvarsf ""
attr measurement ""
attr network Reliability
attr processid 22348
attr repetition 4
attr replication #4
attr resultdir results
attr runnumber 4
attr seedset 4
config network Reliability
config Reliability.node[*].transmissionTime "uniform(1s, 2s)"
config Reliability.node[*].delayTime "uniform(0.01s, 0.2s)"
config Reliability.node[0].lossProbability 0.5
config Reliability.node[1].lossProbability 0.6
config Reliability.node[2].lossProbability 0.7
config Reliability.node[3].lossProbability 0.1
config Reliability.node[4].lossProbability 0.2
config Reliability.node[5].lossProbability 0.1
config record-eventlog true
config sim-time-limit 240s
config repeat 5

vector 0 Reliability.node[0] txVector ETV
vector 1 Reliability.node[1] txVector ETV
vector 2 Reliability.node[1] rxVector ETV
vector 3 Reliability.node[3] txVector ETV
vector 4 Reliability.node[3] rxVector ETV
vector 5 Reliability.node[4] txVector ETV
vector 6 Reliability.node[4] rxVector ETV
vector 7 Reliability.node[5] rxVector ETV
vector 8 Reliability.node[5] e2eVector ETV
vector 9 Reliability.node[2] txVector ETV
vector 10 Reliability.node[2] rxVector ETV
vector 11 Reliability.node[0] rxVector ETV
0	1	0.193735669288	1
0	1	0.193735669288	1
0	1	0.193735669288	1
0	3	1.740967922532	2
0	3	1.740967922532	2
0	3	1.740967922532	2
0	13	3.596588867404	3
0	13	3.596588867404	3
0	13	3.596588867404	3
0	25	5.168945359219	4
0	25	5.168945359219	4
0	25	5.168945359219	4
0	30	7.113949204017	5
0	30	7.113949204017	5
0	30	7.113949204017	5
0	39	8.281921387803	6
0	39	8.281921387803	6
0	39	8.281921387803	6
0	41	9.493101943437	7
0	41	9.493101943437	7
0	41	9.493101943437	7
0	43	11.130712192193	8
0	43	11.130712192193	8
0	43	11.130712192193	8
0	53	12.371750797298	9
0	53	12.371750797298	9
0	53	12.371750797298	9
0	55	13.454919892051	10
0	55	13.454919892051	10
0	55	13.454919892051	10
0	57	15.079850742048	11
0	57	15.079850742048	11
0	57	15.079850742048	11
0	59	17.009257396836	12
0	59	17.009257396836	12
0	59	17.009257396836	12
0	69	18.646814464977	13
0	69	18.646814464977	13
0	69	18.646814464977	13
0	81	20.051639677644	14
0	81	20.051639677644	14
0	81	20.051639677644	14
0	83	21.566373651767	15
0	83	21.566373651767	15
0	83	21.566373651767	15
0	85	22.630625029014	16
0	85	22.630625029014	16
0	85	22.630625029014	16
0	87	24.170699764661	17
0	87	24.170699764661	17
0	87	24.170699764661	17
0	99	25.762573410443	18
0	99	25.762573410443	18
0	99	25.762573410443	18
0	101	27.452217520134	19
0	101	27.452217520134	19
0	101	27.452217520134	19
0	113	29.378938207089	20
0	113	29.378938207089	20
0	113	29.378938207089	20
0	115	30.63986036476	21
0	115	30.63986036476	21
0	115	30.63986036476	21
0	117	31.752370700392	22
0	117	31.752370700392	22
0	117	31.752370700392	22
0	119	33.654792559252	23
0	119	33.654792559252	23
0	119	33.654792559252	23
0	131	34.657719154761	24
0	131	34.657719154761	24
0	131	34.657719154761	24
0	133	36.413078548073	25
0	133	36.413078548073	25
0	133	36.413078548073	25
0	145	38.356876053301	26
0	145	38.356876053301	26
0	145	38.356876053301	26
0	157	39.390753670515	27
0	157	39.390753670515	27
0	157	39.390753670515	27
0	159	40.678790499143	28
0	159	40.678790499143	28
0	159	40.678790499143	28
0	171	42.088425988251	29
0	171	42.088425988251	29
0	171	42.088425988251	29
0	183	43.842281438097	30
0	183	43.842281438097	30
0	183	43.842281438097	30
0	185	45.106541947381	31
0	185	45.106541947381	31
0	185	45.106541947381	31
0	197	47.041832803202	32
0	197	47.041832803202	32
0	197	47.041832803202	32
0	199	48.193718405825	33
0	199	48.193718405825	33
0	199	48.193718405825	33
0	201	50.183835325914	34
0	201	50.183835325914	34
0	201	50.183835325914	34
0	203	51.440640248277	35
0	203	51.440640248277	35
0	203	51.440640248277	35
0	205	52.543435488746	36
0	205	52.543435488746	36
0	205	52.543435488746	36
0	207	53.918775633827	37
0	207	53.918775633827	37
0	207	53.918775633827	37
0	209	55.113723321503	38
0	209	55.113723321503	38
0	209	55.113723321503	38
0	219	57.059551617281	39
0	219	57.059551617281	39
0	219	57.059551617281	39
0	229	58.244760851992	40
0	229	58.244760851992	40
0	229	58.244760851992	40
0	231	60.103481701726	41
0	231	60.103481701726	41
0	231	60.103481701726	41
0	233	61.566331459826	42
0	233	61.566331459826	42
0	233	61.566331459826	42
0	240	62.836696941557	43
0	240	62.836696941557	43
0	240	62.836696941557	43
0	252	63.973052130698	44
0	252	63.973052130698	44
0	252	63.973052130698	44
0	259	65.613613050117	45
0	259	65.613613050117	45
0	259	65.613613050117	45
0	261	67.050636524021	46
0	261	67.050636524021	46
0	261	67.050636524021	46
0	263	68.84263710297	47
0	263	68.84263710297	47
0	263	68.84263710297	47
0	273	70.122090703028	48
0	273	70.122090703028	48
0	273	70.122090703028	48
0	275	71.689459670487	49
0	275	71.689459670487	49
0	275	71.689459670487	49
0	277	72.854621445446	50
0	277	72.854621445446	50
0	277	72.854621445446	50
0	284	73.937329056359	51
0	284	73.937329056359	51
0	284	73.937329056359	51
0	286	75.569619595691	52
0	286	75.569619595691	52
0	286	75.569619595691	52
0	288	77.458322178492	53
0	288	77.458322178492	53
0	288	77.458322178492	53
0	290	79.031605782605	54
0	290	79.031605782605	54
0	290	79.031605782605	54
0	300	80.368785614067	55
0	300	80.368785614067	55
0	300	80.368785614067	55
0	310	81.952705484734	56
0	310	81.952705484734	56
0	310	81.952705484734	56
0	312	83.197777382716	57
0	312	83.197777382716	57
0	312	83.197777382716	57
0	314	84.462693105837	58
0	314	84.462693105837	58
0	314	84.462693105837	58
0	321	85.872128693772	59
0	321	85.872128693772	59
0	321	85.872128693772	59
0	323	87.079091717874	60
0	323	87.079091717874	60
0	323	87.079091717874	60
0	335	88.584898783512	61
0	335	88.584898783512	61
0	335	88.584898783512	61
0	337	90.156723477099	62
0	337	90.156723477099	62
0	337	90.156723477099	62
0	339	92.006788612496	63
0	339	92.006788612496	63
0	339	92.006788612496	63
0	349	93.442523350859	64
0	349	93.442523350859	64
0	349	93.442523350859	64
0	351	95.013757554734	65
0	351	95.013757554734	65
0	351	95.013757554734	65
0	363	96.553205747776	66
0	363	96.553205747776	66
0	363	96.553205747776	66
0	365	98.543634746377	67
0	365	98.543634746377	67
0	365	98.543634746377	67
0	367	99.615802166205	68
0	367	99.615802166205	68
0	367	99.615802166205	68
0	379	100.738252113493	69
0	379	100.738252113493	69
0	379	100.738252113493	69
0	389	101.939234416852	70
0	389	101.939234416852	70
0	389	101.939234416852	70
0	401	102.996815755883	71
0	401	102.996815755883	71
0	401	102.996815755883	71
0	403	104.914999057226	72
0	403	104.914999057226	72
0	403	104.914999057226	72
0	405	106.521143276397	73
0	405	106.521143276397	73
0	405	106.521143276397	73
0	407	108.170441825561	74
0	407	108.170441825561	74
0	407	108.170441825561	74
0	409	109.687188588235	75
0	409	109.687188588235	75
0	409	109.687188588235	75
0	419	110.73046907402	76
0	419	110.73046907402	76
0	419	110.73046907402	76
0	431	112.037414287835	77
0	431	112.037414287835	77
0	431	112.037414287835	77
0	438	114.013151184808	78
0	438	114.013151184808	78
0	438	114.013151184808	78
0	450	115.301250251395	79
0	450	115.301250251395	79
0	450	115.301250251395	79
0	457	117.052633701743	80
0	457	117.052633701743	80
0	457	117.052633701743	80
0	459	118.072695282673	81
0	459	118.072695282673	81
0	459	118.072695282673	81
0	461	119.194332923427	82
0	461	119.194332923427	82
0	461	119.194332923427	82
0	463	120.854191172788	83
0	463	120.854191172788	83
0	463	120.854191172788	83
0	465	122.505692560844	84
0	465	122.505692560844	84
0	465	122.505692560844	84
0	467	124.078019760236	85
0	467	124.078019760236	85
0	467	124.078019760236	85
0	469	125.411922318082	86
0	469	125.411922318082	86
0	469	125.411922318082	86
0	471	126.627382547514	87
0	471	126.627382547514	87
0	471	126.627382547514	87
0	483	127.960174151383	88
0	483	127.960174151383	88
0	483	127.960174151383	88
0	485	129.697655827192	89
0	485	129.697655827192	89
0	485	129.697655827192	89
0	487	130.954491249205	90
0	487	130.954491249205	90
0	487	130.954491249205	90
0	489	132.719147727511	91
0	489	132.719147727511	91
0	489	132.719147727511	91
0	491	133.904414007359	92
0	491	133.904414007359	92
0	491	133.904414007359	92
0	493	134.987237535569	93
0	493	134.987237535569	93
0	493	134.987237535569	93
0	505	136.471325541067	94
0	505	136.471325541067	94
0	505	136.471325541067	94
0	517	137.700049320388	95
0	517	137.700049320388	95
0	517	137.700049320388	95
0	519	138.762972704753	96
0	519	138.762972704753	96
0	519	138.762972704753	96
0	531	140.67512804774	97
0	531	140.67512804774	97
0	531	140.67512804774	97
0	541	142.105674556609	98
0	541	142.105674556609	98
0	541	142.105674556609	98
0	543	144.009182260524	99
0	543	144.009182260524	99
0	543	144.009182260524	99
0	545	145.980754304364	100
0	545	145.980754304364	100
0	545	145.980754304364	100
0	547	147.938873096289	101
0	547	147.938873096289	101
0	547	147.938873096289	101
0	549	149.624585543679	102
0	549	149.624585543679	102
0	549	149.624585543679	102
0	551	150.8180045189	103
0	551	150.8180045189	103
0	551	150.8180045189	103
0	563	152.192033876585	104
0	563	152.192033876585	104
0	563	152.192033876585	104
0	565	153.510352989346	105
0	565	153.510352989346	105
0	565	153.510352989346	105
0	567	154.738270487789	106
0	567	154.738270487789	106
0	567	154.738270487789	106
0	579	156.583656979645	107
0	579	156.583656979645	107
0	579	156.583656979645	107
0	581	158.509873163108	108
0	581	158.509873163108	108
0	581	158.509873163108	108
0	583	159.827602199665	109
0	583	159.827602199665	109
0	583	159.827602199665	109
0	585	161.668013988449	110
0	585	161.668013988449	110
0	585	161.668013988449	110
0	595	162.70837207736	111
0	595	162.70837207736	111
0	595	162.70837207736	111
0	597	164.180606215182	112
0	597	164.180606215182	112
0	597	164.180606215182	112
0	607	165.457133166646	113
0	607	165.457133166646	113
0	607	165.457133166646	113
0	619	166.948498785883	114
0	619	166.948498785883	114
0	619	166.948498785883	114
0	621	168.793227979369	115
0	621	168.793227979369	115
0	621	168.793227979369	115
0	623	169.941213559281	116
0	623	169.941213559281	116
0	623	169.941213559281	116
0	630	171.560863907371	117
0	630	171.560863907371	117
0	630	171.560863907371	117
0	632	173.539185342999	118
0	632	173.539185342999	118
0	632	173.539185342999	118
0	634	175.121705423264	119
0	634	175.121705423264	119
0	634	175.121705423264	119
0	636	176.199614897059	120
0	636	176.199614897059	120
0	636	176.199614897059	120
0	638	177.540412436394	121
0	638	177.540412436394	121
0	638	177.540412436394	121
0	645	178.648423463261	122
0	645	178.648423463261	122
0	645	178.648423463261	122
0	654	179.977129908899	123
0	654	179.977129908899	123
0	654	179.977129908899	123
0	656	181.697524688827	124
0	656	181.697524688827	124
0	656	181.697524688827	124
0	658	182.718698138293	125
0	658	182.718698138293	125
0	658	182.718698138293	125
0	660	184.581169259889	126
0	660	184.581169259889	126
0	660	184.581169259889	126
0	662	186.305361661749	127
0	662	186.305361661749	127
0	662	186.305361661749	127
0	667	188.003789668126	128
0	667	188.003789668126	128
0	667	188.003789668126	128
0	669	189.099834814124	129
0	669	189.099834814124	129
0	669	189.099834814124	129
0	681	191.077830991164	130
0	681	191.077830991164	130
0	681	191.077830991164	130
0	683	192.180751771588	131
0	683	192.180751771588	131
0	683	192.180751771588	131
0	693	193.662512199642	132
0	693	193.662512199642	132
0	693	193.662512199642	132
0	695	195.460360634528	133
0	695	195.460360634528	133
0	695	195.460360634528	133
0	697	196.783579429533	134
0	697	196.783579429533	134
0	697	196.783579429533	134
0	699	198.273004161581	135
0	699	198.273004161581	135
0	699	198.273004161581	135
0	701	199.773720244798	136
0	701	199.773720244798	136
0	701	199.773720244798	136
0	711	200.791215184066	137
0	711	200.791215184066	137
0	711	200.791215184066	137
0	721	202.159698851561	138
0	721	202.159698851561	138
0	721	202.159698851561	138
0	731	203.683099741969	139
0	731	203.683099741969	139
0	731	203.683099741969	139
0	733	205.217099273033	140
0	733	205.217099273033	140
0	733	205.217099273033	140
0	735	206.490530660297	141
0	735	206.490530660297	141
0	735	206.490530660297	141
0	745	208.140052253534	142
0	745	208.140052253534	142
0	745	208.140052253534	142
0	747	209.897674991903	143
0	747	209.897674991903	143
0	747	209.897674991903	143
0	757	211.58233256537	144
0	757	211.58233256537	144
0	757	211.58233256537	144
0	759	212.887739182836	145
0	759	212.887739182836	145
0	759	212.887739182836	145
0	766	214.112974472963	146
0	766	214.112974472963	146
0	766	214.112974472963	146
0	771	215.456091661858	147
0	771	215.456091661858	147
0	771	215.456091661858	147
0	783	217.227267335089	148
0	783	217.227267335089	148
0	783	217.227267335089	148
0	793	218.873361877319	149
0	793	218.873361877319	149
0	793	218.873361877319	149
0	795	220.650230608102	150
0	795	220.650230608102	150
0	795	220.650230608102	150
0	797	221.779424140848	151
0	797	221.779424140848	151
0	797	221.779424140848	151
0	799	222.79727260155	152
0	799	222.79727260155	152
0	799	222.79727260155	152
0	809	223.840478098638	153
0	809	223.840478098638	153
0	809	223.840478098638	153
0	811	225.451814169217	154
0	811	225.451814169217	154
0	811	225.451814169217	154
0	813	226.504915733975	155
0	813	226.504915733975	155
0	813	226.504915733975	155
0	825	228.131062508947	156
0	825	228.131062508947	156
0	825	228.131062508947	156
0	827	229.873555309525	157
0	827	229.873555309525	157
0	827	229.873555309525	157
0	839	231.781329461992	158
0	839	231.781329461992	158
0	839	231.781329461992	158
0	841	232.900550103434	159
0	841	232.900550103434	159
0	841	232.900550103434	159
0	851	234.258065416165	160
0	851	234.258065416165	160
0	851	234.258065416165	160
0	860	235.330435315999	161
0	860	235.330435315999	161
0	860	235.330435315999	161
0	872	236.97681123639	162
0	872	236.97681123639	162
0	872	236.97681123639	162
0	879	238.893141077985	163
0	879	238.893141077985	163
0	879	238.893141077985	163
1	4	1.945777949758	1
1	4	1.945777949758	2
1	4	1.945777949758	3
1	14	3.654149031033	4
1	14	3.654149031033	5
1	14	3.654149031033	6
1	26	5.338343496226	7
1	26	5.338343496226	8
1	26	5.338343496226	9
1	31	7.167362838669	10
1	31	7.167362838669	11
1	31	7.167362838669	12
1	44	11.226996326267	13
1	44	11.226996326267	14
1	44	11.226996326267	15
1	60	17.074124248095	16
1	60	17.074124248095	17
1	60	17.074124248095	18
1	70	18.734525352045	19
1	70	18.734525352045	20
1	70	18.734525352045	21
1	88	24.215245253296	22
1	88	24.215245253296	23
1	88	24.215245253296	24
1	102	27.595801330883	25
1	102	27.595801330883	26
1	102	27.595801330883	27
1	120	33.860919649257	28
1	120	33.860919649257	29
1	120	33.860919649257	30
1	134	36.607405791723	31
1	134	36.607405791723	32
1	134	36.607405791723	33
1	146	38.514980027828	34
1	146	38.514980027828	35
1	146	38.514980027828	36
1	160	40.776238617647	37
1	160	40.776238617647	38
1	160	40.776238617647	39
1	172	42.134028983355	40
1	172	42.134028983355	41
1	172	42.134028983355	42
1	186	45.206791477165	43
1	186	45.206791477165	44
1	186	45.206791477165	45
1	210	55.2086092248	46
1	210	55.2086092248	47
1	210	55.2086092248	48
1	220	57.095492689958	49
1	220	57.095492689958	50
1	220	57.095492689958	51
1	234	61.667041988505	52
1	234	61.667041988505	53
1	234	61.667041988505	54
1	241	62.953860525899	55
1	241	62.953860525899	56
1	241	62.953860525899	57
1	253	64.178474134447	58
1	253	64.178474134447	59
1	253	64.178474134447	60
1	264	69.052260616541	61
1	264	69.052260616541	62
1	264	69.052260616541	63
1	278	72.92988101756	64
1	278	72.92988101756	65
1	278	72.92988101756	66
1	291	79.127928609423	67
1	291	79.127928609423	68
1	291	79.127928609423	69
1	301	80.502121236667	70
1	301	80.502121236667	71
1	301	80.502121236667	72
1	315	84.650159408924	73
1	315	84.650159408924	74
1	315	84.650159408924	75
1	324	87.258892035553	76
1	324	87.258892035553	77
1	324	87.258892035553	78
1	340	92.120328638725	79
1	340	92.120328638725	80
1	340	92.120328638725	81
1	352	95.056459118876	82
1	352	95.056459118876	83
1	352	95.056459118876	84
1	368	99.736925585828	85
1	368	99.736925585828	86
1	368	99.736925585828	87
1	380	100.789032917827	88
1	380	100.789032917827	89
1	380	100.789032917827	90
1	390	102.013443494722	91
1	390	102.013443494722	92
1	390	102.013443494722	93
1	410	109.799674339789	94
1	410	109.799674339789	95
1	410	109.799674339789	96
1	420	110.888104504935	97
1	420	110.888104504935	98
1	420	110.888104504935	99
1	432	112.205976140619	100
1	432	112.205976140619	101
1	432	112.205976140619	102
1	439	114.195185758652	103
1	439	114.195185758652	104
1	439	114.195185758652	105
1	451	115.436676535251	106
1	451	115.436676535251	107
1	451	115.436676535251	108
1	472	126.691405457955	109
1	472	126.691405457955	110
1	472	126.691405457955	111
1	494	135.190349929508	112
1	494	135.190349929508	113
1	494	135.190349929508	114
1	506	136.585350787505	115
1	506	136.585350787505	116
1	506	136.585350787505	117
1	520	138.894967516296	118
1	520	138.894967516296	119
1	520	138.894967516296	120
1	532	140.847049465274	121
1	532	140.847049465274	122
1	532	140.847049465274	123
1	552	150.996855329055	124
1	552	150.996855329055	125
1	552	150.996855329055	126
1	568	154.821220191951	127
1	568	154.821220191951	128
1	568	154.821220191951	129
1	586	161.848001567174	130
1	586	161.848001567174	131
1	586	161.848001567174	132
1	598	164.204134685954	133
1	598	164.204134685954	134
1	598	164.204134685954	135
1	608	165.63572665198	136
1	608	165.63572665198	137
1	608	165.63572665198	138
1	624	169.987086667387	139
1	624	169.987086667387	140
1	624	169.987086667387	141
1	639	177.623121298527	142
1	639	177.623121298527	143
1	639	177.623121298527	144
1	646	178.843157004103	145
1	646	178.843157004103	146
1	646	178.843157004103	147
1	663	186.463654369026	148
1	663	186.463654369026	149
1	663	186.463654369026	150
1	670	189.204638202145	151
1	670	189.204638202145	152
1	670	189.204638202145	153
1	684	192.232151370599	154
1	684	192.232151370599	155
1	684	192.232151370599	156
1	702	199.975189504898	157
1	702	199.975189504898	158
1	702	199.975189504898	159
1	712	200.914826641668	160
1	712	200.914826641668	161
1	712	200.914826641668	162
1	722	202.35216236465	163
1	722	202.35216236465	164
1	722	202.35216236465	165
1	736	206.616339310466	166
1	736	206.616339310466	167
1	736	206.616339310466	168
1	748	209.929110530235	169
1	748	209.929110530235	170
1	748	209.929110530235	171
1	760	212.917029817043	172
1	760	212.917029817043	173
1	760	212.917029817043	174
1	767	214.312488628262	175
1	767	214.312488628262	176
1	767	214.312488628262	177
1	772	215.598258454601	178
1	772	215.598258454601	179
1	772	215.598258454601	180
1	784	217.348824729916	181
1	784	217.348824729916	182
1	784	217.348824729916	183
1	800	222.899281630463	184
1	800	222.899281630463	185
1	800	222.899281630463	186
1	814	226.654530227007	187
1	814	226.654530227007	188
1	814	226.654530227007	189
1	828	229.915698405976	190
1	828	229.915698405976	191
1	828	229.915698405976	192
1	842	232.983779930777	193
1	842	232.983779930777	194
1	842	232.983779930777	195
1	852	234.285348882875	196
1	852	234.285348882875	197
1	852	234.285348882875	198
1	861	235.452770345916	199
1	861	235.452770345916	200
1	861	235.452770345916	201
1	873	237.04543514706	202
1	873	237.04543514706	203
1	873	237.04543514706	204
1	880	238.964974410767	205
1	880	238.964974410767	206
1	880	238.964974410767	207
2	4	1.945777949758	1
2	8	2.126191821685	2
2	14	3.654149031033	3
2	18	3.922427548195	4
2	26	5.338343496226	5
2	31	7.167362838669	6
2	44	11.226996326267	7
2	60	17.074124248095	8
2	70	18.734525352045	9
2	88	24.215245253296	10
2	91	24.328446371915	11
2	102	27.595801330883	12
2	120	33.860919649257	13
2	122	34.012227765358	14
2	130	34.195221350927	15
2	134	36.607405791723	16
2	146	38.514980027828	17
2	154	38.773427217273	18
2	160	40.776238617647	19
2	172	42.134028983355	20
2	176	42.479502053221	21
2	182	42.776019360667	22
2	186	45.206791477165	23
2	195	45.791944180511	24
2	210	55.2086092248	25
2	216	55.544540382947	26
2	220	57.095492689958	27
2	234	61.667041988505	28
2	241	62.953860525899	29
2	248	63.167335765826	30
2	253	64.178474134447	31
2	264	69.052260616541	32
2	278	72.92988101756	33
2	282	73.237568339834	34
2	291	79.127928609423	35
2	297	79.297328814002	36
2	301	80.502121236667	37
2	315	84.650159408924	38
2	324	87.258892035553	39
2	331	87.660912361575	40
2	340	92.120328638725	41
2	352	95.056459118876	42
2	361	95.483023978891	43
2	368	99.736925585828	44
2	378	100.361963096174	45
2	380	100.789032917827	46
2	390	102.013443494722	47
2	410	109.799674339789	48
2	420	110.888104504935	49
2	424	111.092339632138	50
2	426	111.158602509023	51
2	432	112.205976140619	52
2	436	112.420844633229	53
2	439	114.195185758652	54
2	449	114.833358702454	55
2	451	115.436676535251	56
2	472	126.691405457955	57
2	481	127.204327657177	58
2	494	135.190349929508	59
2	499	135.447202297506	60
2	506	136.585350787505	61
2	514	136.868265165214	62
2	520	138.894967516296	63
2	524	139.197328319742	64
2	530	139.393112762285	65
2	532	140.847049465274	66
2	552	150.996855329055	67
2	558	151.194047658475	68
2	568	154.821220191951	69
2	574	155.161629407579	70
2	576	155.190344287608	71
2	586	161.848001567174	72
2	598	164.204134685954	73
2	602	164.375898897867	74
2	608	165.63572665198	75
2	624	169.987086667387	76
2	629	170.227525436011	77
2	639	177.623121298527	78
2	643	177.847150703681	79
2	646	178.843157004103	80
2	651	179.127916614594	81
2	652	179.128092665334	82
2	663	186.463654369026	83
2	670	189.204638202145	84
2	676	189.431755611408	85
2	679	189.491276808708	86
2	684	192.232151370599	87
2	702	199.975189504898	88
2	712	200.914826641668	89
2	716	201.110464942088	90
2	722	202.35216236465	91
2	736	206.616339310466	92
2	748	209.929110530235	93
2	753	210.295286906065	94
2	760	212.917029817043	95
2	764	213.290243945333	96
2	767	214.312488628262	97
2	772	215.598258454601	98
2	776	215.75714051065	99
2	778	215.808717120688	100
2	784	217.348824729916	101
2	787	217.528037394603	102
2	800	222.899281630463	103
2	814	226.654530227007	104
2	818	226.822123183654	105
2	828	229.915698405976	106
2	832	230.117156261063	107
2	842	232.983779930777	108
2	852	234.285348882875	109
2	859	234.681703745093	110
2	861	235.452770345916	111
2	866	235.65819265051	112
2	873	237.04543514706	113
2	880	238.964974410767	114
2	885	239.15633889199	115
3	5	2.079313628841	1
3	5	2.079313628841	2
3	16	3.788934099068	3
3	16	3.788934099068	4
3	32	7.264967171452	5
3	32	7.264967171452	6
3	47	11.367202482137	7
3	47	11.367202482137	8
3	63	17.188705131048	9
3	63	17.188705131048	10
3	73	18.863231718525	11
3	73	18.863231718525	12
3	90	24.304931490383	13
3	90	24.304931490383	14
3	103	27.644059430667	15
3	103	27.644059430667	16
3	125	34.058975205299	17
3	125	34.058975205299	18
3	137	36.806497104266	19
3	137	36.806497104266	20
3	148	38.636611521981	21
3	148	38.636611521981	22
3	162	40.894235236502	23
3	162	40.894235236502	24
3	179	42.566512602963	25
3	179	42.566512602963	26
3	189	45.410839561872	27
3	189	45.410839561872	28
3	213	55.347198340909	29
3	213	55.347198340909	30
3	223	57.255608565562	31
3	223	57.255608565562	32
3	237	61.773860443439	33
3	237	61.773860443439	34
3	242	63.023610547893	35
3	242	63.023610547893	36
3	255	64.281346625355	37
3	255	64.281346625355	38
3	266	69.116313104833	39
3	266	69.116313104833	40
3	281	73.137263715205	41
3	281	73.137263715205	42
3	292	79.155100193903	43
3	292	79.155100193903	44
3	304	80.682112000869	45
3	304	80.682112000869	46
3	317	84.833536851547	47
3	317	84.833536851547	48
3	326	87.457480928045	49
3	326	87.457480928045	50
3	343	92.277837815382	51
3	343	92.277837815382	52
3	355	95.174842658845	53
3	355	95.174842658845	54
3	371	99.898532435388	55
3	371	99.898532435388	56
3	381	100.886758321345	57
3	381	100.886758321345	58
3	391	102.07993306141	59
3	391	102.07993306141	60
3	411	109.968553378157	61
3	411	109.968553378157	62
3	422	111.045146588671	63
3	422	111.045146588671	64
3	435	112.393373215451	65
3	435	112.393373215451	66
3	441	114.310692200718	67
3	441	114.310692200718	68
3	475	126.840736374602	69
3	475	126.840736374602	70
3	497	135.380214815327	71
3	497	135.380214815327	72
3	507	136.628285893551	73
3	507	136.628285893551	74
3	527	139.310457956913	75
3	527	139.310457956913	76
3	534	140.961011225836	77
3	534	140.961011225836	78
3	553	151.09133116362	79
3	553	151.09133116362	80
3	570	154.989738408016	81
3	570	154.989738408016	82
3	589	161.979047196298	83
3	589	161.979047196298	84
3	610	165.801863300993	85
3	610	165.801863300993	86
3	625	170.044484003625	87
3	625	170.044484003625	88
3	641	177.821342068413	89
3	641	177.821342068413	90
3	649	178.973606629699	91
3	649	178.973606629699	92
3	671	189.295995536771	93
3	671	189.295995536771	94
3	686	192.365252896155	95
3	686	192.365252896155	96
3	705	200.149566917142	97
3	705	200.149566917142	98
3	714	201.037778418316	99
3	714	201.037778418316	100
3	723	202.401452311418	101
3	723	202.401452311418	102
3	739	206.676283245473	103
3	739	206.676283245473	104
3	751	210.113297669752	105
3	751	210.113297669752	106
3	763	213.121719927654	107
3	763	213.121719927654	108
3	773	215.651967071299	109
3	773	215.651967071299	110
3	786	217.498783510082	111
3	786	217.498783510082	112
3	803	223.104941628166	113
3	803	223.104941628166	114
3	817	226.814607760452	115
3	817	226.814607760452	116
3	830	230.040473910781	117
3	830	230.040473910781	118
3	843	233.062828547	119
3	843	233.062828547	120
3	856	234.475264156723	121
3	856	234.475264156723	122
3	864	235.613952173874	123
3	864	235.613952173874	124
3	875	237.203746886421	125
3	875	237.203746886421	126
3	881	239.081321643475	127
3	881	239.081321643475	128
4	5	2.079313628841	1
4	10	2.387416165855	2
4	16	3.788934099068	3
4	20	3.991594581782	4
4	32	7.264967171452	5
4	47	11.367202482137	6
4	52	11.536688806297	7
4	63	17.188705131048	8
4	68	17.575140890544	9
4	73	18.863231718525	10
4	80	19.076273974872	11
4	90	24.304931490383	12
4	98	24.530140340334	13
4	103	27.644059430667	14
4	111	27.841852760763	15
4	125	34.058975205299	16
4	128	34.131690612151	17
4	137	36.806497104266	18
4	144	37.034908057624	19
4	148	38.636611521981	20
4	162	40.894235236502	21
4	179	42.566512602963	22
4	189	45.410839561872	23
4	192	45.674915940991	24
4	213	55.347198340909	25
4	217	55.601364113178	26
4	223	57.255608565562	27
4	225	57.371702840723	28
4	237	61.773860443439	29
4	242	63.023610547893	30
4	250	63.18844119578	31
4	255	64.281346625355	32
4	266	69.116313104833	33
4	271	69.267180295082	34
4	281	73.137263715205	35
4	292	79.155100193903	36
4	296	79.264006739637	37
4	304	80.682112000869	38
4	306	80.748199772521	39
4	317	84.833536851547	40
4	326	87.457480928045	41
4	330	87.649534881696	42
4	343	92.277837815382	43
4	348	92.528759471806	44
4	355	95.174842658845	45
4	371	99.898532435388	46
4	376	100.291192014324	47
4	381	100.886758321345	48
4	391	102.07993306141	49
4	411	109.968553378157	50
4	418	110.28966147191	51
4	422	111.045146588671	52
4	430	111.272721708765	53
4	435	112.393373215451	54
4	441	114.310692200718	55
4	445	114.575730683859	56
4	475	126.840736374602	57
4	478	127.059365299138	58
4	497	135.380214815327	59
4	503	135.607103389281	60
4	507	136.628285893551	61
4	515	136.871507029293	62
4	527	139.310457956913	63
4	534	140.961011225836	64
4	537	141.129285110951	65
4	553	151.09133116362	66
4	561	151.288278651557	67
4	570	154.989738408016	68
4	578	155.337399600412	69
4	589	161.979047196298	70
4	592	162.178136858798	71
4	610	165.801863300993	72
4	613	165.879758333347	73
4	625	170.044484003625	74
4	641	177.821342068413	75
4	649	178.973606629699	76
4	671	189.295995536771	77
4	686	192.365252896155	78
4	691	192.693296325129	79
4	705	200.149566917142	80
4	714	201.037778418316	81
4	720	201.418827124522	82
4	723	202.401452311418	83
4	730	202.72663989717	84
4	739	206.676283245473	85
4	751	210.113297669752	86
4	763	213.121719927654	87
4	773	215.651967071299	88
4	780	215.904046911469	89
4	786	217.498783510082	90
4	790	217.660154286522	91
4	803	223.104941628166	92
4	808	223.349934920187	93
4	817	226.814607760452	94
4	822	227.08535216806	95
4	830	230.040473910781	96
4	837	230.271419162582	97
4	843	233.062828547	98
4	848	233.339222374414	99
4	856	234.475264156723	100
4	864	235.613952173874	101
4	867	235.768241362686	102
4	875	237.203746886421	103
4	881	239.081321643475	104
4	890	239.389488960056	105
5	9	2.28480577524	1
5	9	2.28480577524	2
5	9	2.28480577524	3
5	19	3.963204171598	4
5	19	3.963204171598	5
5	19	3.963204171598	6
5	49	11.42120752467	7
5	49	11.42120752467	8
5	49	11.42120752467	9
5	65	17.38864919614	10
5	65	17.38864919614	11
5	65	17.38864919614	12
5	76	19.009637769889	13
5	76	19.009637769889	14
5	76	19.009637769889	15
5	92	24.333560306287	16
5	92	24.333560306287	17
5	92	24.333560306287	18
5	108	27.747224338137	19
5	108	27.747224338137	20
5	108	27.747224338137	21
5	123	34.045674858004	22
5	123	34.045674858004	23
5	123	34.045674858004	24
5	138	36.828478171935	25
5	138	36.828478171935	26
5	138	36.828478171935	27
5	152	38.708381099611	28
5	152	38.708381099611	29
5	152	38.708381099611	30
5	166	41.020412172336	31
5	166	41.020412172336	32
5	166	41.020412172336	33
5	177	42.481926583028	34
5	177	42.481926583028	35
5	177	42.481926583028	36
5	191	45.569108009437	37
5	191	45.569108009437	38
5	191	45.569108009437	39
5	214	55.424648137558	40
5	214	55.424648137558	41
5	214	55.424648137558	42
5	224	57.320330398913	43
5	224	57.320330398913	44
5	224	57.320330398913	45
5	244	63.054479672758	46
5	244	63.054479672758	47
5	244	63.054479672758	48
5	269	69.18073138652	49
5	269	69.18073138652	50
5	269	69.18073138652	51
5	293	79.200535895011	52
5	293	79.200535895011	53
5	293	79.200535895011	54
5	305	80.715216193353	55
5	305	80.715216193353	56
5	305	80.715216193353	57
5	328	87.500892088268	58
5	328	87.500892088268	59
5	328	87.500892088268	60
5	344	92.343845488191	61
5	344	92.343845488191	62
5	344	92.343845488191	63
5	356	95.292675222974	64
5	356	95.292675222974	65
5	356	95.292675222974	66
5	373	100.098575212978	67
5	373	100.098575212978	68
5	373	100.098575212978	69
5	384	101.013512152534	70
5	384	101.013512152534	71
5	384	101.013512152534	72
5	393	102.148119441305	73
5	393	102.148119441305	74
5	393	102.148119441305	75