version 3
run General-1-20231018-20:19:12-22348
attr configname General
attr datetime 20231018-20:19:12
attr datetimef 20231018-201912
attr experiment General
attr inifile omnetpp.ini
attr iterationvars ""
attr iterationvarsd ""
attr iterationvarsf ""
attr measurement ""
attr network Reliability
attr processid 22348
attr repetition 1
attr replication #1
attr resultdir results
attr runnumber 1
attr seedset 1
config network Reliability
config Reliability.node[*].transmissionTime "uniform(1s, 2s)"
config Reliability.node[*].delayTime "uniform(0.01s, 0.2s)"
config Reliability.node[0].lossProbability 0.5
config Reliability.node[1].lossProbability 0.6
config Reliability.node[2].lossProbability 0.7
config Reliability.node[3].lossProbability 0.1
config Reliability.node[4].lossProbability 0.2
config Reliability.node[5].lossProbability 0.1
config record-eventlog true
config sim-time-limit 240s
config repeat 5

vector 0 Reliability.node[0] txVector ETV
vector 1 Reliability.node[1] txVector ETV
vector 2 Reliability.node[1] rxVector ETV
vector 3 Reliability.node[0] rxVector ETV
vector 4 Reliability.node[3] txVector ETV
vector 5 Reliability.node[3] rxVector ETV
vector 6 Reliability.node[4] txVector ETV
vector 7 Reliability.node[4] rxVector ETV
vector 8 Reliability.node[2] txVector ETV
vector 9 Reliability.node[2] rxVector ETV
vector 10 Reliability.node[5] rxVector ETV
vector 11 Reliability.node[5] e2eVector ETV
0	1	0.089234179703	1
0	1	0.089234179703	1
0	1	0.089234179703	1
0	13	1.809558668991	2
0	13	1.809558668991	2
0	13	1.809558668991	2
0	15	3.01401091798	3
0	15	3.01401091798	3
0	15	3.01401091798	3
0	17	4.243588138025	4
0	17	4.243588138025	4
0	17	4.243588138025	4
0	27	5.914055645585	5
0	27	5.914055645585	5
0	27	5.914055645585	5
0	39	7.790444791669	6
0	39	7.790444791669	6
0	39	7.790444791669	6
0	41	9.105960425574	7
0	41	9.105960425574	7
0	41	9.105960425574	7
0	53	10.889274898104	8
0	53	10.889274898104	8
0	53	10.889274898104	8
0	55	12.792645069424	9
0	55	12.792645069424	9
0	55	12.792645069424	9
0	57	13.922673638564	10
0	57	13.922673638564	10
0	57	13.922673638564	10
0	67	15.006296643874	11
0	67	15.006296643874	11
0	67	15.006296643874	11
0	69	16.237312065324	12
0	69	16.237312065324	12
0	69	16.237312065324	12
0	76	17.651368051421	13
0	76	17.651368051421	13
0	76	17.651368051421	13
0	86	19.443771630645	14
0	86	19.443771630645	14
0	86	19.443771630645	14
0	88	20.805032654086	15
0	88	20.805032654086	15
0	88	20.805032654086	15
0	98	22.555844756661	16
0	98	22.555844756661	16
0	98	22.555844756661	16
0	100	24.520684805818	17
0	100	24.520684805818	17
0	100	24.520684805818	17
0	112	26.018793875238	18
0	112	26.018793875238	18
0	112	26.018793875238	18
0	114	27.171723697687	19
0	114	27.171723697687	19
0	114	27.171723697687	19
0	116	28.698781803603	20
0	116	28.698781803603	20
0	116	28.698781803603	20
0	118	30.407824325961	21
0	118	30.407824325961	21
0	118	30.407824325961	21
0	130	32.316359471417	22
0	130	32.316359471417	22
0	130	32.316359471417	22
0	132	34.07182252326	23
0	132	34.07182252326	23
0	132	34.07182252326	23
0	139	35.28039083153	24
0	139	35.28039083153	24
0	139	35.28039083153	24
0	141	36.526601901399	25
0	141	36.526601901399	25
0	141	36.526601901399	25
0	143	37.815319734048	26
0	143	37.815319734048	26
0	143	37.815319734048	26
0	155	39.368141707387	27
0	155	39.368141707387	27
0	155	39.368141707387	27
0	157	40.756002352927	28
0	157	40.756002352927	28
0	157	40.756002352927	28
0	164	42.507875322253	29
0	164	42.507875322253	29
0	164	42.507875322253	29
0	174	43.615369445533	30
0	174	43.615369445533	30
0	174	43.615369445533	30
0	176	44.867695192229	31
0	176	44.867695192229	31
0	176	44.867695192229	31
0	178	46.029313721815	32
0	178	46.029313721815	32
0	178	46.029313721815	32
0	180	47.610672651445	33
0	180	47.610672651445	33
0	180	47.610672651445	33
0	187	48.660690735913	34
0	187	48.660690735913	34
0	187	48.660690735913	34
0	196	49.679266934403	35
0	196	49.679266934403	35
0	196	49.679266934403	35
0	198	51.188055673036	36
0	198	51.188055673036	36
0	198	51.188055673036	36
0	205	52.933390103634	37
0	205	52.933390103634	37
0	205	52.933390103634	37
0	215	54.028809348009	38
0	215	54.028809348009	38
0	215	54.028809348009	38
0	217	55.353326848363	39
0	217	55.353326848363	39
0	217	55.353326848363	39
0	219	57.088392814043	40
0	219	57.088392814043	40
0	219	57.088392814043	40
0	229	58.825204276367	41
0	229	58.825204276367	41
0	229	58.825204276367	41
0	239	59.833206987129	42
0	239	59.833206987129	42
0	239	59.833206987129	42
0	241	60.86805471138	43
0	241	60.86805471138	43
0	241	60.86805471138	43
0	243	61.994384231864	44
0	243	61.994384231864	44
0	243	61.994384231864	44
0	245	63.687569429985	45
0	245	63.687569429985	45
0	245	63.687569429985	45
0	247	64.709094238122	46
0	247	64.709094238122	46
0	247	64.709094238122	46
0	257	66.670411495379	47
0	257	66.670411495379	47
0	257	66.670411495379	47
0	267	68.566691744028	48
0	267	68.566691744028	48
0	267	68.566691744028	48
0	269	69.880302574372	49
0	269	69.880302574372	49
0	269	69.880302574372	49
0	271	71.473783981407	50
0	271	71.473783981407	50
0	271	71.473783981407	50
0	278	72.722484181289	51
0	278	72.722484181289	51
0	278	72.722484181289	51
0	280	74.334515362166	52
0	280	74.334515362166	52
0	280	74.334515362166	52
0	282	75.350388341935	53
0	282	75.350388341935	53
0	282	75.350388341935	53
0	284	77.02945717925	54
0	284	77.02945717925	54
0	284	77.02945717925	54
0	286	78.606361143177	55
0	286	78.606361143177	55
0	286	78.606361143177	55
0	296	80.583120287049	56
0	296	80.583120287049	56
0	296	80.583120287049	56
0	298	82.333142051126	57
0	298	82.333142051126	57
0	298	82.333142051126	57
0	310	83.369611753269	58
0	310	83.369611753269	58
0	310	83.369611753269	58
0	312	84.931070712048	59
0	312	84.931070712048	59
0	312	84.931070712048	59
0	314	86.904872793357	60
0	314	86.904872793357	60
0	314	86.904872793357	60
0	316	88.589560701397	61
0	316	88.589560701397	61
0	316	88.589560701397	61
0	318	90.016261713232	62
0	318	90.016261713232	62
0	318	90.016261713232	62
0	330	91.236128011371	63
0	330	91.236128011371	63
0	330	91.236128011371	63
0	332	92.280400308666	64
0	332	92.280400308666	64
0	332	92.280400308666	64
0	334	94.051284223215	65
0	334	94.051284223215	65
0	334	94.051284223215	65
0	336	95.118316274022	66
0	336	95.118316274022	66
0	336	95.118316274022	66
0	341	96.461005182124	67
0	341	96.461005182124	67
0	341	96.461005182124	67
0	343	97.505423124067	68
0	343	97.505423124067	68
0	343	97.505423124067	68
0	353	99.317281817205	69
0	353	99.317281817205	69
0	353	99.317281817205	69
0	355	100.629551655033	70
0	355	100.629551655033	70
0	355	100.629551655033	70
0	365	102.169856216644	71
0	365	102.169856216644	71
0	365	102.169856216644	71
0	367	103.225315538121	72
0	367	103.225315538121	72
0	367	103.225315538121	72
0	377	104.842000607054	73
0	377	104.842000607054	73
0	377	104.842000607054	73
0	384	105.986546146103	74
0	384	105.986546146103	74
0	384	105.986546146103	74
0	394	107.379486413558	75
0	394	107.379486413558	75
0	394	107.379486413558	75
0	404	109.102851165344	76
0	404	109.102851165344	76
0	404	109.102851165344	76
0	406	110.775185724839	77
0	406	110.775185724839	77
0	406	110.775185724839	77
0	408	112.571774402053	78
0	408	112.571774402053	78
0	408	112.571774402053	78
0	420	114.187039335144	79
0	420	114.187039335144	79
0	420	114.187039335144	79
0	422	115.996116575671	80
0	422	115.996116575671	80
0	422	115.996116575671	80
0	434	117.35182174633	81
0	434	117.35182174633	81
0	434	117.35182174633	81
0	436	118.933399156087	82
0	436	118.933399156087	82
0	436	118.933399156087	82
0	438	120.420141868644	83
0	438	120.420141868644	83
0	438	120.420141868644	83
0	440	121.667874770124	84
0	440	121.667874770124	84
0	440	121.667874770124	84
0	450	123.314628684313	85
0	450	123.314628684313	85
0	450	123.314628684313	85
0	462	124.403244943476	86
0	462	124.403244943476	86
0	462	124.403244943476	86
0	464	125.486100405107	87
0	464	125.486100405107	87
0	464	125.486100405107	87
0	476	126.753172420782	88
0	476	126.753172420782	88
0	476	126.753172420782	88
0	486	128.577182286304	89
0	486	128.577182286304	89
0	486	128.577182286304	89
0	498	130.332043765231	90
0	498	130.332043765231	90
0	498	130.332043765231	90
0	500	132.105918109302	91
0	500	132.105918109302	91
0	500	132.105918109302	91
0	512	133.825007469511	92
0	512	133.825007469511	92
0	512	133.825007469511	92
0	524	135.662811337157	93
0	524	135.662811337157	93
0	524	135.662811337157	93
0	526	137.537321603044	94
0	526	137.537321603044	94
0	526	137.537321603044	94
0	536	138.801619081178	95
0	536	138.801619081178	95
0	536	138.801619081178	95
0	538	140.235211411377	96
0	538	140.235211411377	96
0	538	140.235211411377	96
0	550	141.463816220758	97
0	550	141.463816220758	97
0	550	141.463816220758	97
0	560	143.344159690782	98
0	560	143.344159690782	98
0	560	143.344159690782	98
0	562	145.293136706695	99
0	562	145.293136706695	99
0	562	145.293136706695	99
0	569	147.224997819986	100
0	569	147.224997819986	100
0	569	147.224997819986	100
0	571	148.581407908236	101
0	571	148.581407908236	101
0	571	148.581407908236	101
0	583	149.756173784265	102
0	583	149.756173784265	102
0	583	149.756173784265	102
0	585	151.420276345804	103
0	585	151.420276345804	103
0	585	151.420276345804	103
0	587	153.198914751529	104
0	587	153.198914751529	104
0	587	153.198914751529	104
0	589	154.373634898222	105
0	589	154.373634898222	105
0	589	154.373634898222	105
0	601	156.301758719726	106
0	601	156.301758719726	106
0	601	156.301758719726	106
0	613	157.621607630631	107
0	613	157.621607630631	107
0	613	157.621607630631	107
0	620	158.830940066721	108
0	620	158.830940066721	108
0	620	158.830940066721	108
0	627	160.150892897393	109
0	627	160.150892897393	109
0	627	160.150892897393	109
0	629	162.021105556866	110
0	629	162.021105556866	110
0	629	162.021105556866	110
0	631	163.33360693988	111
0	631	163.33360693988	111
0	631	163.33360693988	111
0	641	165.023320886889	112
0	641	165.023320886889	112
0	641	165.023320886889	112
0	643	166.776931369794	113
0	643	166.776931369794	113
0	643	166.776931369794	113
0	645	168.691720055999	114
0	645	168.691720055999	114
0	645	168.691720055999	114
0	647	170.499419089291	115
0	647	170.499419089291	115
0	647	170.499419089291	115
0	649	171.983847533237	116
0	649	171.983847533237	116
0	649	171.983847533237	116
0	659	173.548211963499	117
0	659	173.548211963499	117
0	659	173.548211963499	117
0	661	174.558983756579	118
0	661	174.558983756579	118
0	661	174.558983756579	118
0	663	176.306304569007	119
0	663	176.306304569007	119
0	663	176.306304569007	119
0	673	177.922067927546	120
0	673	177.922067927546	120
0	673	177.922067927546	120
0	675	179.085157351219	121
0	675	179.085157351219	121
0	675	179.085157351219	121
0	677	180.299269491224	122
0	677	180.299269491224	122
0	677	180.299269491224	122
0	679	181.571968358824	123
0	679	181.571968358824	123
0	679	181.571968358824	123
0	686	182.949050957685	124
0	686	182.949050957685	124
0	686	182.949050957685	124
0	688	184.634804544154	125
0	688	184.634804544154	125
0	688	184.634804544154	125
0	698	186.552138104684	126
0	698	186.552138104684	126
0	698	186.552138104684	126
0	700	187.67834820866	127
0	700	187.67834820866	127
0	700	187.67834820866	127
0	702	189.451182640971	128
0	702	189.451182640971	128
0	702	189.451182640971	128
0	709	190.653784762484	129
0	709	190.653784762484	129
0	709	190.653784762484	129
0	719	192.102392278726	130
0	719	192.102392278726	130
0	719	192.102392278726	130
0	721	193.178409859885	131
0	721	193.178409859885	131
0	721	193.178409859885	131
0	723	194.960591674664	132
0	723	194.960591674664	132
0	723	194.960591674664	132
0	728	196.751571836065	133
0	728	196.751571836065	133
0	728	196.751571836065	133
0	730	197.83167548559	134
0	730	197.83167548559	134
0	730	197.83167548559	134
0	732	199.724139337543	135
0	732	199.724139337543	135
0	732	199.724139337543	135
0	734	201.254836773615	136
0	734	201.254836773615	136
0	734	201.254836773615	136
0	736	202.831285409977	137
0	736	202.831285409977	137
0	736	202.831285409977	137
0	748	204.037739468155	138
0	748	204.037739468155	138
0	748	204.037739468155	138
0	760	205.082584796356	139
0	760	205.082584796356	139
0	760	205.082584796356	139
0	772	206.944551353458	140
0	772	206.944551353458	140
0	772	206.944551353458	140
0	774	208.802448457222	141
0	774	208.802448457222	141
0	774	208.802448457222	141
0	776	210.633889270363	142
0	776	210.633889270363	142
0	776	210.633889270363	142
0	778	212.340845515368	143
0	778	212.340845515368	143
0	778	212.340845515368	143
0	780	214.101688714813	144
0	780	214.101688714813	144
0	780	214.101688714813	144
0	782	215.872011243248	145
0	782	215.872011243248	145
0	782	215.872011243248	145
0	794	217.57325012388	146
0	794	217.57325012388	146
0	794	217.57325012388	146
0	796	218.751916501087	147
0	796	218.751916501087	147
0	796	218.751916501087	147
0	798	220.038628149892	148
0	798	220.038628149892	148
0	798	220.038628149892	148
0	800	221.160782223915	149
0	800	221.160782223915	149
0	800	221.160782223915	149
0	805	222.774653306811	150
0	805	222.774653306811	150
0	805	222.774653306811	150
0	807	224.36849728727	151
0	807	224.36849728727	151
0	807	224.36849728727	151
0	809	225.71419611119	152
0	809	225.71419611119	152
0	809	225.71419611119	152
0	811	226.976188093771	153
0	811	226.976188093771	153
0	811	226.976188093771	153
0	823	228.443433914215	154
0	823	228.443433914215	154
0	823	228.443433914215	154
0	830	230.048912913886	155
0	830	230.048912913886	155
0	830	230.048912913886	155
0	842	231.861710628609	156
0	842	231.861710628609	156
0	842	231.861710628609	156
0	854	233.481044812475	157
0	854	233.481044812475	157
0	854	233.481044812475	157
0	856	235.013463469336	158
0	856	235.013463469336	158
0	856	235.013463469336	158
0	866	236.941312457549	159
0	866	236.941312457549	159
0	866	236.941312457549	159
0	876	238.906301378852	160
0	876	238.906301378852	160
0	876	238.906301378852	160
1	2	0.298699293248	1
1	2	0.298699293248	2
1	2	0.298699293248	3
1	18	4.365126780395	4
1	18	4.365126780395	5
1	18	4.365126780395	6
1	28	6.032504629749	7
1	28	6.032504629749	8
1	28	6.032504629749	9
1	42	9.256395601255	10
1	42	9.256395601255	11
1	42	9.256395601255	12
1	58	13.946353360662	13
1	58	13.946353360662	14
1	58	13.946353360662	15
1	70	16.35866727897	16
1	70	16.35866727897	17
1	70	16.35866727897	18
1	77	17.769196981856	19
1	77	17.769196981856	20
1	77	17.769196981856	21
1	89	20.933524280887	22
1	89	20.933524280887	23
1	89	20.933524280887	24
1	101	24.666738690495	25
1	101	24.666738690495	26
1	101	24.666738690495	27
1	119	30.517246078927	28
1	119	30.517246078927	29
1	119	30.517246078927	30
1	133	34.235058999967	31
1	133	34.235058999967	32
1	133	34.235058999967	33
1	144	37.8793538421	34
1	144	37.8793538421	35
1	144	37.8793538421	36
1	158	40.940075304937	37
1	158	40.940075304937	38
1	158	40.940075304937	39
1	165	42.701993198155	40
1	165	42.701993198155	41
1	165	42.701993198155	42
1	181	47.814976449434	43
1	181	47.814976449434	44
1	181	47.814976449434	45
1	188	48.824967007769	46
1	188	48.824967007769	47
1	188	48.824967007769	48
1	199	51.249029225352	49
1	199	51.249029225352	50
1	199	51.249029225352	51
1	206	52.993323165958	52
1	206	52.993323165958	53
1	206	52.993323165958	54
1	220	57.255106639631	55
1	220	57.255106639631	56
1	220	57.255106639631	57
1	230	59.019169483917	58
1	230	59.019169483917	59
1	230	59.019169483917	60
1	248	64.909208578175	61
1	248	64.909208578175	62
1	248	64.909208578175	63
1	258	66.80099418945	64
1	258	66.80099418945	65
1	258	66.80099418945	66
1	272	71.576182488602	67
1	272	71.576182488602	68
1	272	71.576182488602	69
1	287	78.791189459586	70
1	287	78.791189459586	71
1	287	78.791189459586	72
1	299	82.51622168035	73
1	299	82.51622168035	74
1	299	82.51622168035	75
1	319	90.101497498743	76
1	319	90.101497498743	77
1	319	90.101497498743	78
1	337	95.292552861618	79
1	337	95.292552861618	80
1	337	95.292552861618	81
1	344	97.578854333449	82
1	344	97.578854333449	83
1	344	97.578854333449	84
1	356	100.82364970987	85
1	356	100.82364970987	86
1	356	100.82364970987	87
1	368	103.275255667495	88
1	368	103.275255667495	89
1	368	103.275255667495	90
1	378	104.95896919572	91
1	378	104.95896919572	92
1	378	104.95896919572	93
1	385	106.068175013956	94
1	385	106.068175013956	95
1	385	106.068175013956	96
1	395	107.523234236829	97
1	395	107.523234236829	98
1	395	107.523234236829	99
1	409	112.676542185749	100
1	409	112.676542185749	101
1	409	112.676542185749	102
1	423	116.103165242551	103
1	423	116.103165242551	104
1	423	116.103165242551	105
1	441	121.737687655125	106
1	441	121.737687655125	107
1	441	121.737687655125	108
1	451	123.447380850736	109
1	451	123.447380850736	110
1	451	123.447380850736	111
1	465	125.602188387056	112
1	465	125.602188387056	113
1	465	125.602188387056	114
1	477	126.928548414672	115
1	477	126.928548414672	116
1	477	126.928548414672	117
1	487	128.779335268048	118
1	487	128.779335268048	119
1	487	128.779335268048	120
1	501	132.149789970877	121
1	501	132.149789970877	122
1	501	132.149789970877	123
1	513	133.880657486752	124
1	513	133.880657486752	125
1	513	133.880657486752	126
1	527	137.718401699334	127
1	527	137.718401699334	128
1	527	137.718401699334	129
1	539	140.352547023913	130
1	539	140.352547023913	131
1	539	140.352547023913	132
1	551	141.569858385697	133
1	551	141.569858385697	134
1	551	141.569858385697	135
1	563	145.324432031082	136
1	563	145.324432031082	137
1	563	145.324432031082	138
1	572	148.630127555465	139
1	572	148.630127555465	140
1	572	148.630127555465	141
1	590	154.502070909144	142
1	590	154.502070909144	143
1	590	154.502070909144	144
1	602	156.393091337929	145
1	602	156.393091337929	146
1	602	156.393091337929	147
1	614	157.735101273769	148
1	614	157.735101273769	149
1	614	157.735101273769	150
1	621	158.91041284819	151
1	621	158.91041284819	152
1	621	158.91041284819	153
1	632	163.449465581987	154
1	632	163.449465581987	155
1	632	163.449465581987	156
1	650	172.167117916968	157
1	650	172.167117916968	158
1	650	172.167117916968	159
1	664	176.381329090707	160
1	664	176.381329090707	161
1	664	176.381329090707	162
1	680	181.685689329602	163
1	680	181.685689329602	164
1	680	181.685689329602	165
1	689	184.769147372563	166
1	689	184.769147372563	167
1	689	184.769147372563	168
1	703	189.548537462836	169
1	703	189.548537462836	170
1	703	189.548537462836	171
1	710	190.796124934622	172
1	710	190.796124934622	173
1	710	190.796124934622	174
1	724	194.991258472274	175
1	724	194.991258472274	176
1	724	194.991258472274	177
1	737	202.889564076928	178
1	737	202.889564076928	179
1	737	202.889564076928	180
1	749	204.188186472367	181
1	749	204.188186472367	182
1	749	204.188186472367	183
1	761	205.152224995612	184
1	761	205.152224995612	185
1	761	205.152224995612	186
1	783	216.034629864005	187
1	783	216.034629864005	188
1	783	216.034629864005	189
1	801	221.300419792957	190
1	801	221.300419792957	191
1	801	221.300419792957	192
1	812	227.055719580865	193
1	812	227.055719580865	194
1	812	227.055719580865	195
1	824	228.493915117632	196
1	824	228.493915117632	197
1	824	228.493915117632	198
1	831	230.177834645215	199
1	831	230.177834645215	200
1	831	230.177834645215	201
1	843	231.883217875404	202
1	843	231.883217875404	203
1	843	231.883217875404	204
1	857	235.1923887179	205
1	857	235.1923887179	206
1	857	235.1923887179	207
1	867	237.130963627219	208
1	867	237.130963627219	209
1	867	237.130963627219	210
1	877	238.967647487244	211
1	877	238.967647487244	212
1	877	238.967647487244	213
2	2	0.298699293248	1
2	18	4.365126780395	2
2	22	4.548917129412	3
2	28	6.032504629749	4
2	42	9.256395601255	5
2	58	13.946353360662	6
2	70	16.35866727897	7
2	77	17.769196981856	8
2	89	20.933524280887	9
2	95	21.284031501327	10
2	101	24.666738690495	11
2	105	24.923768439553	12
2	111	25.187315223812	13
2	119	30.517246078927	14
2	133	34.235058999967	15
2	144	37.8793538421	16
2	154	38.239620088016	17
2	158	40.940075304937	18
2	162	41.072852324772	19
2	165	42.701993198155	20
2	181	47.814976449434	21
2	185	48.029517280855	22
2	188	48.824967007769	23
2	192	48.987709470435	24
2	199	51.249029225352	25
2	206	52.993323165958	26
2	210	53.128271236815	27
2	220	57.255106639631	28
2	224	57.470176512805	29
2	230	59.019169483917	30
2	248	64.909208578175	31
2	258	66.80099418945	32
2	272	71.576182488602	33
2	277	71.815752481561	34
2	287	78.791189459586	35
2	294	79.173689036526	36
2	299	82.51622168035	37
2	302	82.689738587085	38
2	319	90.101497498743	39
2	337	95.292552861618	40
2	344	97.578854333449	41
2	356	100.82364970987	42
2	368	103.275255667495	43
2	378	104.95896919572	44
2	385	106.068175013956	45
2	395	107.523234236829	46
2	409	112.676542185749	47
2	412	112.82847220003	48
2	418	113.025686660648	49
2	423	116.103165242551	50
2	431	116.347965003566	51
2	441	121.737687655125	52
2	451	123.447380850736	53
2	455	123.62465976882	54
2	456	123.65689079452	55
2	465	125.602188387056	56
2	470	125.878667390858	57
2	477	126.928548414672	58
2	480	126.985585185967	59
2	487	128.779335268048	60
2	501	132.149789970877	61
2	505	132.306037870447	62
2	511	132.595582230127	63
2	513	133.880657486752	64
2	517	134.143025660761	65
2	527	137.718401699334	66
2	539	140.352547023913	67
2	544	140.490448430145	68
2	551	141.569858385697	69
2	563	145.324432031082	70
2	572	148.630127555465	71
2	590	154.502070909144	72
2	600	154.842453130013	73
2	602	156.393091337929	74
2	605	156.544008664848	75
2	612	156.734778276171	76
2	614	157.735101273769	77
2	619	157.975236299356	78
2	621	158.91041284819	79
2	625	159.113005612487	80
2	632	163.449465581987	81
2	650	172.167117916968	82
2	664	176.381329090707	83
2	668	176.527798553522	84
2	680	181.685689329602	85
2	689	184.769147372563	86
2	703	189.548537462836	87
2	710	190.796124934622	88
2	724	194.991258472274	89
2	737	202.889564076928	90
2	742	203.111091854996	91
2	749	204.188186472367	92
2	761	205.152224995612	93
2	766	205.48953684278	94
2	783	216.034629864005	95
2	801	221.300419792957	96
2	812	227.055719580865	97
2	824	228.493915117632	98
2	829	228.72443880192	99
2	831	230.177834645215	100
2	833	230.258907519405	101
2	840	230.661977384884	102
2	843	231.883217875404	103
2	846	231.939682073999	104
2	857	235.1923887179	105
2	867	237.130963627219	106
2	872	237.218040870018	107
2	877	238.967647487244	108
3	3	0.318721025653	1
3	33	6.22247989588	2
3	74	16.510603308992	3
3	78	17.794859240275	4
3	91	21.0914638985	5
3	102	24.700759172587	6
3	122	30.655684501151	7
3	184	47.975758005304	8
3	190	48.858271215285	9
3	203	51.396183475073	10
3	289	78.882739719779	11
3	320	90.127569180375	12
3	338	95.325512637033	13
3	347	97.765097047214	14
3	381	105.121759481479	15
3	386	106.103523922594	16
3	424	116.128146770378	17
3	452	123.498861882376	18
3	504	132.300532030083	19
3	515	134.032898511609	20
3	530	137.894028642445	21
3	545	140.532619430609	22
3	591	154.542527045125	23
3	637	163.634970359374	24
3	665	176.451096456626	25
3	681	181.710748628272	26
3	705	189.650461996226	27
3	713	190.987738845603	28
3	738	202.924039950816	29
3	813	227.13552506137	30
3	826	228.659602288606	31
3	835	230.372262068422	32
3	848	232.009252798628	33
3	860	235.382623012052	34
3	870	237.206864608075	35
4	5	0.37614248112	1
4	5	0.37614248112	2
4	21	4.491277847588	3
4	21	4.491277847588	4
4	29	6.068663029089	5
4	29	6.068663029089	6
4	44	9.282888150159	7
4	44	9.282888150159	8
4	60	14.139338552827	9
4	60	14.139338552827	10
4	71	16.457361339548	11
4	71	16.457361339548	12
4	80	17.956990821469	13
4	80	17.956990821469	14
4	92	21.121352438257	15
4	92	21.121352438257	16
4	104	24.836259470539	17
4	104	24.836259470539	18
4	120	30.540252114687	19
4	120	30.540252114687	20
4	135	34.353642756294	21
4	135	34.353642756294	22
4	145	37.92294677235	23
4	145	37.92294677235	24
4	160	41.041467962743	25
4	160	41.041467962743	26
4	168	42.857461105173	27
4	168	42.857461105173	28
4	183	47.891725695575	29
4	183	47.891725695575	30
4	191	48.937372578005	31
4	191	48.937372578005	32
4	200	51.31936394143	33
4	200	51.31936394143	34
4	209	53.08105126552	35
4	209	53.08105126552	36
4	222	57.405647716412	37
4	222	57.405647716412	38
4	231	59.095126677774	39
4	231	59.095126677774	40
4	251	65.018904429042	41
4	251	65.018904429042	42
4	259	66.825532167105	43
4	259	66.825532167105	44
4	273	71.640883470677	45
4	273	71.640883470677	46
4	290	78.996208332687	47
4	290	78.996208332687	48
4	303	82.707322104303	49
4	303	82.707322104303	50
4	322	90.299123216303	51
4	322	90.299123216303	52
4	346	97.729652850556	53
4	346	97.729652850556	54
4	357	100.885199461503	55
4	357	100.885199461503	56
4	369	103.314629446675	57
4	369	103.314629446675	58
4	380	105.021158532214	59
4	380	105.021158532214	60
4	396	107.620432054018	61
4	396	107.620432054018	62
4	411	112.781301091799	63
4	411	112.781301091799	64
4	425	116.153640327125	65
4	425	116.153640327125	66
4	454	123.562950191907	67
4	454	123.562950191907	68
4	467	125.703625964831	69
4	467	125.703625964831	70
4	490	128.941253582003	71
4	490	128.941253582003	72
4	503	132.285464457759	73
4	503	132.285464457759	74
4	514	134.006118763713	75
4	514	134.006118763713	76
4	528	137.797413277396	77
4	528	137.797413277396	78
4	541	140.430605630586	79
4	541	140.430605630586	80
4	553	141.653211845898	81
4	553	141.653211845898	82
4	565	145.504854721835	83
4	565	145.504854721835	84
4	575	148.728708973895	85
4	575	148.728708973895	86
4	592	154.608073329762	87
4	592	154.608073329762	88
4	606	156.594581270585	89
4	606	156.594581270585	90
4	615	157.838661006413	91
4	615	157.838661006413	92
4	623	158.972257351744	93
4	623	158.972257351744	94
4	633	163.537012154963	95
4	633	163.537012154963	96
4	651	172.274157097799	97
4	651	172.274157097799	98
4	667	176.500941512301	99
4	667	176.500941512301	100
4	682	181.726764199565	101
4	682	181.726764199565	102
4	691	184.894385449361	103
4	691	184.894385449361	104
4	704	189.645335824655	105
4	704	189.645335824655	106
4	712	190.983596349256	107
4	712	190.983596349256	108
4	739	203.006069199422	109
4	739	203.006069199422	110
4	751	204.244211602187	111
4	751	204.244211602187	112
4	763	205.33567002478	113
4	763	205.33567002478	114
4	784	216.106990802625	115
4	784	216.106990802625	116
4	815	227.194822145205	117
4	815	227.194822145205	118
4	825	228.609808233168	119
4	825	228.609808233168	120
4	832	230.214489969826	121
4	832	230.214489969826	122
4	844	231.915094610765	123
4	844	231.915094610765	124
4	859	235.305782296322	125
4	859	235.305782296322	126
4	868	237.170620943457	127
4	868	237.170620943457	128
4	880	239.135438698407	129
4	880	239.135438698407	130
5	5	0.37614248112	1
5	10	0.618744566757	2
5	21	4.491277847588	3
5	29	6.068663029089	4
5	38	6.450727452771	5
5	44	9.282888150159	6
5	49	9.421805921066	7
5	60	14.139338552827	8
5	64	14.318250915074	9
5	71	16.457361339548	10
5	80	17.956990821469	11
5	83	18.095194352298	12
5	92	21.121352438257	13
5	94	21.279887165511	14
5	104	24.836259470539	15
5	107	25.031188621371	16
5	120	30.540252114687	17
5	126	30.771018403705	18
5	135	34.353642756294	19
5	145	37.92294677235	20
5	150	38.059748538286	21
5	160	41.041467962743	22
5	168	42.857461105173	23
5	171	42.990672135027	24
5	183	47.891725695575	25
5	191	48.937372578005	26
5	200	51.31936394143	27
5	209	53.08105126552	28
5	212	53.257491137127	29
5	222	57.405647716412	30
5	228	57.764607084367	31
5	231	59.095126677774	32
5	238	59.424505023558	33
5	251	65.018904429042	34
5	255	65.185325523388	35
5	259	66.825532167105	36
5	266	67.104644098901	37
5	273	71.640883470677	38
5	290	78.996208332687	39
5	295	79.195346458474	40
5	303	82.707322104303	41
5	309	82.848216104855	42
5	322	90.299123216303	43
5	327	90.487338672473	44
5	346	97.729652850556	45
5	350	97.865820112831	46
5	357	100.885199461503	47
5	361	100.963555790031	48
5	369	103.314629446675	49
5	376	103.634084028529	50
5	380	105.021158532214	51
5	396	107.620432054018	52
5	403	107.851217842448	53
5	411	112.781301091799	54
5	416	112.967774887033	55
5	425	116.153640327125	56
5	430	116.337382571757	57
5	454	123.562950191907	58
5	460	123.858657930749	59
5	467	125.703625964831	60
5	473	125.996437544312	61
5	490	128.941253582003	62
5	495	129.175952625986	63
5	503	132.285464457759	64
5	508	132.530028286701	65
5	514	134.006118763713	66
5	520	134.228703658693	67
5	528	137.797413277396	68
5	534	138.172567451401	69
5	541	140.430605630586	70
5	549	140.666469658729	71
5	553	141.653211845898	72
5	558	141.891442816468	73
5	565	145.504854721835	74
5	575	148.728708973895	75
5	581	148.890093653221	76
5	592	154.608073329762	77
5	599	154.840981497303	78
5	606	156.594581270585	79
5	610	156.721436033136	80
5	615	157.838661006413	81
5	623	158.972257351744	82
5	633	163.537012154963	83
5	640	163.758494891806	84
5	651	172.274157097799	85
5	658	172.577138169571	86
5	667	176.500941512301	87
5	670	176.640185196118	88
5	682	181.726764199565	89
5	691	184.894385449361	90
5	704	189.645335824655	91
5	712	190.983596349256	92
5	717	191.262181231903	93
5	739	203.006069199422	94
5	743	203.134161840599	95
5	751	204.244211602187	96
5	756	204.510196298858	97
5	763	205.33567002478	98
5	784	216.106990802625	99
5	790	216.215639136748	100
5	815	227.194822145205	101
5	821	227.402411764052	102
5	825	228.609808233168	103
5	832	230.214489969826	104
5	837	230.518248032099	105
5	844	231.915094610765	106
5	851	232.183455151928	107
5	859	235.305782296322	108
5	865	235.500930341649	109
5	868	237.170620943457	110
5	875	237.343364794026	111
5	880	239.135438698407	112
6	7	0.471492819087	1
6	7	0.471492819087	2
6	7	0.471492819087	3
6	23	4.659171802332	4
6	23	4.659171802332	5
6	23	4.659171802332	6
6	34	6.248728441696	7
6	34	6.248728441696	8
6	34	6.248728441696	9
6	46	9.359602256871	10
6	46	9.359602256871	11
6	46	9.359602256871	12
6	63	14.270372486355	13
6	63	14.270372486355	14
6	63	14.270372486355	15
6	81	18.003453326715	16
6	81	18.003453326715	17
6	81	18.003453326715	18
6	93	21.208600865696	19
6	93	21.208600865696	20
6	93	21.208600865696	21
6	106	24.966153495939	22
6	106	24.966153495939	23
6	106	24.966153495939	24
6	123	30.718273706682	25
6	123	30.718273706682	26
6	123	30.718273706682	27
6	147	37.960342496015	28
6	147	37.960342496015	29
6	147	37.960342496015	30
6	170	42.902117331605	31
6	170	42.902117331605	32
6	170	42.902117331605	33
6	211	53.137803778874	34
6	211	53.137803778874	35
6	211	53.137803778874	36
6	225	57.564073621781	37
6	225	57.564073621781	38
6	225	57.564073621781	39
6	235	59.229945670778	40
6	235	59.229945670778	41