version 3
run General-4-20231014-16:43:56-3313
attr configname General
attr datetime 20231014-16:43:56
attr datetimef 20231014-164356
attr experiment General
attr inifile omnetpp.ini
attr iterationvars ""
attr iterationvarsd ""
attr iterationvarsf ""
attr measurement ""
attr network Reliability
attr processid 3313
attr repetition 4
attr replication #4
attr resultdir results
attr runnumber 4
attr seedset 4
config network Reliability
config Reliability.node[*].transmissionTime "uniform(1s, 2s)"
config Reliability.node[*].delayTime "uniform(0.01s, 0.2s)"
config Reliability.node[0].lossProbability 0.5
config Reliability.node[1].lossProbability 0.6
config Reliability.node[2].lossProbability 0.7
config Reliability.node[3].lossProbability 0.1
config Reliability.node[4].lossProbability 0.2
config Reliability.node[5].lossProbability 0.1
config record-eventlog true
config sim-time-limit 240s
config repeat 5

vector 0 Reliability.node[0] txVector ETV
vector 1 Reliability.node[1] rxVector ETV
vector 2 Reliability.node[1] txVector ETV
vector 3 Reliability.node[2] rxVector ETV
vector 4 Reliability.node[2] txVector ETV
vector 5 Reliability.node[3] rxVector ETV
vector 6 Reliability.node[3] txVector ETV
vector 7 Reliability.node[4] rxVector ETV
vector 8 Reliability.node[4] txVector ETV
vector 9 Reliability.node[5] rxVector ETV
0	0	0	1
0	1	0.193735669288	2
0	4	2.094357123985	3
0	6	3.792085948321	4
0	7	5.768360403054	5
0	11	6.77459066004	6
0	14	8.346947151855	7
0	17	9.944281094628	8
0	19	11.588195357858	9
0	22	12.607220098995	10
0	23	13.780385519531	11
0	24	14.855334106287	12
0	25	16.456076833339	13
0	30	17.624049017125	14
0	31	19.145745141584	15
0	32	20.253938528163	16
0	33	21.412161935739	17
0	34	22.957364589594	18
0	35	24.481768673671	19
0	36	26.119378922427	20
0	37	27.52087436492	21
0	38	29.170679478128	22
0	40	30.567579481671	23
0	41	32.334984449357	24
0	43	33.513958357427	25
0	44	35.016491418624	26
0	45	36.703158500291	27
0	46	37.956838153222	28
0	47	39.511579017773	29
0	48	41.13650986777	30
0	50	43.032011029463	31
0	52	44.669568097604	32
0	53	46.167362218409	33
0	58	47.349807619502	34
0	59	49.254475209548	35
0	61	50.659300422215	36
0	64	52.231439193164	37
0	65	53.900949067355	38
0	67	54.980928307318	39
0	70	56.076126384701	40
0	71	57.679689894815	41
0	73	58.744757702726	42
0	77	59.873944485013	43
0	78	61.394618886442	44
0	80	62.701631558047	45
0	85	64.631000158296	46
0	90	66.281441267499	47
0	91	67.458849249094	48
0	92	68.611877501163	49
0	93	70.579557130498	50
0	94	71.900172777393	51
0	96	73.785969870317	52
0	97	75.157076053241	53
0	98	76.294001871407	54
0	99	77.406512207039	55
0	104	78.478795462674	56
0	107	79.981443535457	57
0	108	81.040323626636	58
0	109	82.652145445733	59
0	110	83.776160066868	60
0	114	85.53568959624	61
0	116	86.625831318707	62
0	119	88.187299782797	63
0	120	90.160577780255	64
0	122	91.200668901824	65
0	125	92.743959215623	66
0	127	94.640651070666	67
0	128	96.255470519573	68
0	133	97.390216165608	69
0	134	99.326109999711	70
0	135	100.826071453899	71
0	137	102.235706943007	72
0	141	103.75147862119	73
0	143	105.161070010311	74
0	145	107.151866827312	75
0	147	108.286619433121	76
0	148	110.120400805877	77
0	149	111.209173666466	78
0	152	113.038591614844	79
0	153	114.346008227359	80
0	154	116.343412215275	81
0	156	117.638044773753	82
0	157	118.902305283037	83
0	162	120.324671229267	84
0	163	122.052399900661	85
0	168	123.742185194663	86
0	169	124.758668812842	87
0	170	126.072035438998	88
0	171	128.062152359087	89
0	172	129.946194745984	90
0	173	130.96613710575	91
0	174	132.068932346219	92
0	175	133.163012988783	93
0	176	134.428810314891	94
0	179	135.623758002567	95
0	180	137.247911245246	96
0	181	138.859723597914	97
0	182	140.793102766536	98
0	183	142.527621821882	99
0	186	144.352442746199	100
0	187	145.967804761053	101
0	189	147.163035919107	102
0	193	149.110473052281	103
0	194	150.162907931403	104
0	195	152.021628781137	105
0	196	153.360853686378	106
0	197	154.754100413675	107
0	199	156.024465895406	108
0	201	157.4814051319	109
0	203	159.044558362019	110
0	204	160.555945648028	111
0	206	162.504271529297	112
0	207	164.458490623076	113
0	208	165.515696543416	114
0	209	167.064501665913	115
0	211	168.6642991555	116
0	212	170.589484284779	117
0	214	172.100390407637	118
0	216	174.076295690526	119
0	217	176.030251664723	120
0	222	177.969145638783	121
0	227	179.835269824516	122
0	228	180.96026239326	123
0	229	182.194042823191	124
0	230	183.577622832644	125
0	231	184.62052136162	126
0	232	186.459232062247	127
0	234	187.863042322366	128
0	235	189.499176336598	129
0	236	190.632018343225	130
0	239	191.714725954138	131
0	240	193.035090606805	132
0	242	194.53995045941	133
0	243	196.172240998742	134
0	245	197.707261165284	135
0	246	199.280544769397	136
0	247	200.682243857911	137
0	249	202.480337901186	138
0	252	203.787742788583	139
0	255	205.213760542596	140
0	256	207.028926932166	141
0	258	208.694183705753	142
0	259	210.314752956067	143
0	261	211.383722390194	144
0	262	213.168333125912	145
0	264	214.172205763549	146
0	265	215.390121899458	147
0	267	216.655037622579	148
0	272	218.61279737475	149
0	274	219.645856842312	150
0	277	221.486911145884	151
0	279	223.295160868585	152
0	281	225.202623075021	153
0	283	226.522048266053	154
0	284	227.997012186477	155
0	285	229.558044750856	156
0	286	231.129869444443	157
0	288	232.281358693408	158
0	291	233.717093431771	159
0	292	235.362541779092	160
0	295	236.604687425455	161
0	297	238.004959124288	162
0	299	239.124441040827	163
1	2	0.246547781036	1
1	8	5.836427051646	2
1	12	6.863274964909	3
1	15	8.36865450981	4
1	20	11.615753626646	5
1	26	16.615419064768	6
1	54	46.361854995832	7
1	62	50.839934715699	8
1	68	55.04224006221	9
1	74	58.88152464263	10
1	81	62.74612927147	11
1	86	64.829085539522	12
1	100	77.463227631845	13
1	105	78.640819477243	14
1	111	83.947100496846	15
1	117	86.647812386376	16
1	123	91.227105649095	17
1	129	96.365144451528	18
1	138	102.348747879142	19
1	150	111.378652805315	20
1	158	119.088950084765	21
1	164	122.158207832215	22
1	177	134.523696218188	23
1	184	142.611433209413	24
1	190	147.227757752458	25
1	218	176.141787424703	26
1	223	178.098819731426	27
1	237	190.681759462385	28
1	250	202.525773602294	29
1	253	203.844510631802	30
1	268	216.720833100489	31
1	275	219.826633493197	32
1	289	232.312326462512	33
1	293	235.504700264946	34
2	2	0.246547781036	1
2	8	5.836427051646	2
2	12	6.863274964909	3
2	15	8.36865450981	4
2	20	11.615753626646	5
2	26	16.615419064768	6
2	54	46.361854995832	7
2	62	50.839934715699	8
2	68	55.04224006221	9
2	74	58.88152464263	10
2	81	62.74612927147	11
2	86	64.829085539522	12
2	100	77.463227631845	13
2	105	78.640819477243	14
2	111	83.947100496846	15
2	117	86.647812386376	16
2	123	91.227105649095	17
2	129	96.365144451528	18
2	138	102.348747879142	19
2	150	111.378652805315	20
2	158	119.088950084765	21
2	164	122.158207832215	22
2	177	134.523696218188	23
2	184	142.611433209413	24
2	190	147.227757752458	25
2	218	176.141787424703	26
2	223	178.098819731426	27
2	237	190.681759462385	28
2	250	202.525773602294	29
2	253	203.844510631802	30
2	268	216.720833100489	31
2	275	219.826633493197	32
2	289	232.312326462512	33
2	293	235.504700264946	34
3	9	5.976690040554	1
3	55	46.441832958544	2
3	82	62.858799422237	3
3	101	77.601705711197	4
3	112	84.141427740496	5
3	139	102.473613901964	6
3	191	147.279130194268	7
4	9	5.976690040554	1
4	55	46.441832958544	2
4	82	62.858799422237	3
4	101	77.601705711197	4
4	112	84.141427740496	5
4	139	102.473613901964	6
4	191	147.279130194268	7
5	27	16.811198164991	1
5	75	58.971210879717	2
5	87	64.877343639306	3
5	130	96.386346000151	4
5	159	119.292998169472	5
5	165	122.346205426151	6
5	219	176.235706987587	7
5	224	178.277635893546	8
5	269	216.899288709891	9
6	27	16.811198164991	1
6	75	58.971210879717	2
6	87	64.877343639306	3
6	130	96.386346000151	4
6	159	119.292998169472	5
6	165	122.346205426151	6
6	219	176.235706987587	7
6	224	178.277635893546	8
6	269	216.899288709891	9
7	28	16.996556395302	1
7	56	46.628324652948	2
7	83	63.032726862526	3
7	88	64.966608741747	4
7	102	77.637510693469	5
7	131	96.425218274693	6
7	160	119.466432469743	7
7	166	122.48720667309	8
7	220	176.276963107694	9
7	225	178.398159646263	10
7	270	217.000280230891	11
8	28	16.996556395302	1
8	56	46.628324652948	2
8	83	63.032726862526	3
8	88	64.966608741747	4
8	102	77.637510693469	5
8	131	96.425218274693	6
8	160	119.466432469743	7
8	166	122.48720667309	8
8	220	176.276963107694	9
8	225	178.398159646263	10
8	270	217.000280230891	11
9	29	17.175255169706	1
9	57	46.780976117868	2
9	84	63.149673152543	3
9	89	65.151105976233	4
9	103	77.796780449499	5
9	132	96.565239800871	6
9	161	119.502946436153	7
9	167	122.688809546322	8
9	221	176.401515400436	9
9	226	178.496637444495	10
9	271	217.056404931024	11

