version 3
run General-0-20231014-16:43:56-3313
attr configname General
attr datetime 20231014-16:43:56
attr datetimef 20231014-164356
attr experiment General
attr inifile omnetpp.ini
attr iterationvars ""
attr iterationvarsd ""
attr iterationvarsf ""
attr measurement ""
attr network Reliability
attr processid 3313
attr repetition 0
attr replication #0
attr resultdir results
attr runnumber 0
attr seedset 0
config network Reliability
config Reliability.node[*].transmissionTime "uniform(1s, 2s)"
config Reliability.node[*].delayTime "uniform(0.01s, 0.2s)"
config Reliability.node[0].lossProbability 0.5
config Reliability.node[1].lossProbability 0.6
config Reliability.node[2].lossProbability 0.7
config Reliability.node[3].lossProbability 0.1
config Reliability.node[4].lossProbability 0.2
config Reliability.node[5].lossProbability 0.1
config record-eventlog true
config sim-time-limit 240s
config repeat 5

vector 0 Reliability.node[0] txVector ETV
vector 1 Reliability.node[1] rxVector ETV
vector 2 Reliability.node[1] txVector ETV
vector 3 Reliability.node[3] rxVector ETV
vector 4 Reliability.node[3] txVector ETV
vector 5 Reliability.node[4] rxVector ETV
vector 6 Reliability.node[4] txVector ETV
vector 7 Reliability.node[5] rxVector ETV
vector 8 Reliability.node[2] rxVector ETV
vector 9 Reliability.node[2] txVector ETV
0	0	0	1
0	1	0.114274565438	2
0	6	1.707119181827	3
0	7	3.09150089005	4
0	10	4.389035495305	5
0	12	6.180760528734	6
0	13	7.748805092489	7
0	15	9.674401725717	8
0	17	10.761531022685	9
0	19	12.594150865525	10
0	21	14.464163010782	11
0	23	16.263321574619	12
0	26	18.043850750271	13
0	28	19.581223978502	14
0	29	20.687131584929	15
0	30	22.16073200766	16
0	32	23.347064352203	17
0	34	24.563614708911	18
0	37	25.887755713034	19
0	39	27.831503788316	20
0	42	29.191011690376	21
0	47	31.160820758976	22
0	48	32.76865142568	23
0	50	34.093698653234	24
0	52	35.727972706389	25
0	53	37.380763025331	26
0	54	39.015821902389	27
0	56	41.011121467995	28
0	57	42.425490056007	29
0	58	43.900187561131	30
0	59	45.523697667132	31
0	60	46.861705284641	32
0	62	48.536457606899	33
0	63	50.314803088624	34
0	64	52.264374140026	35
0	66	53.926901008077	36
0	68	55.549747101339	37
0	70	57.521692100289	38
0	73	59.03131647206	39
0	74	60.070504261023	40
0	76	61.353311220492	41
0	77	62.649451419786	42
0	80	63.768179134075	43
0	82	64.985001267242	44
0	83	66.850103831227	45
0	85	68.359072792186	46
0	88	70.280230404186	47
0	91	71.947640780435	48
0	92	73.212370944751	49
0	94	74.610191696399	50
0	96	75.775132156984	51
0	98	76.921573920251	52
0	103	78.625311201048	53
0	105	80.521349590347	54
0	107	82.412904021173	55
0	112	83.862101753085	56
0	114	85.537540830282	57
0	117	86.850759162411	58
0	119	88.352083545487	59
0	120	89.996073742007	60
0	122	91.419928785955	61
0	123	92.439121986582	62
0	125	93.740696802811	63
0	126	95.030774412752	64
0	129	96.648789839662	65
0	131	97.741163726273	66
0	134	99.29297998136	67
0	135	100.724398415844	68
0	136	102.620945014135	69
0	137	103.988506885787	70
0	139	105.424371805118	71
0	141	107.230565796915	72
0	142	108.330792683485	73
0	143	110.250275296467	74
0	144	111.964516594848	75
0	149	113.96336359771	76
0	152	115.08718358011	77
0	153	116.227156163268	78
0	154	117.260378549649	79
0	156	119.242953506373	80
0	159	120.663028874044	81
0	160	122.518832217046	82
0	165	123.530546298559	83
0	166	124.584884284605	84
0	167	125.784880810027	85
0	168	126.803402604145	86
0	169	128.597100306611	87
0	173	129.821024989319	88
0	174	131.604669237352	89
0	176	133.104695531149	90
0	177	134.803793608752	91
0	182	136.796190004405	92
0	183	138.760679770103	93
0	184	140.314922206179	94
0	185	141.527312708162	95
0	186	142.749755931627	96
0	191	143.968505299492	97
0	192	145.053800866548	98
0	193	146.110219201148	99
0	194	147.598056907142	100
0	196	149.479061465785	101
0	197	151.096719384967	102
0	198	152.639218161889	103
0	199	154.493831744958	104
0	201	156.237666287301	105
0	206	157.914747863617	106
0	207	159.821165952441	107
0	208	160.958386373316	108
0	210	162.18760569634	109
0	211	164.092030673596	110
0	214	165.737815273303	111
0	215	167.610465930851	112
0	216	168.884007964127	113
0	219	170.68205479447	114
0	220	172.165463412024	115
0	223	173.954202833429	116
0	225	175.16751480832	117
0	227	176.193177521771	118
0	230	177.617862986943	119
0	235	178.804321205553	120
0	237	179.979230077781	121
0	239	181.442380274257	122
0	240	182.647246035824	123
0	241	183.812204907259	124
0	242	184.937037968153	125
0	245	186.659118628904	126
0	246	188.562838368427	127
0	251	189.646260803176	128
0	253	190.887089580374	129
0	255	191.903519211646	130
0	258	193.573435753893	131
0	259	194.755066959496	132
0	260	196.267460424994	133
0	263	197.847907555598	134
0	264	199.809477713267	135
0	266	201.041179338778	136
0	268	202.982557043741	137
0	270	204.613004979287	138
0	272	205.906025263323	139
0	277	207.5239019553	140
0	279	209.002272261848	141
0	280	210.641744778334	142
0	281	212.010329381405	143
0	282	213.147229655488	144
0	283	214.969347390421	145
0	284	216.159195304225	146
0	285	217.670514286571	147
0	287	218.894831310567	148
0	289	220.757022824679	149
0	291	222.717857479193	150
0	292	224.491904815501	151
0	293	225.825049971771	152
0	294	226.906151364167	153
0	297	228.3133925319	154
0	299	230.266263203072	155
0	301	231.799728879314	156
0	302	233.682588877697	157
0	303	234.933211597456	158
0	305	236.610623421921	159
0	306	238.042771469644	160
0	309	239.794905987643	161
1	2	0.294685056815	1
1	8	3.122276355438	2
1	24	16.305793715133	3
1	35	24.612052933031	4
1	40	27.934539859322	5
1	43	29.335108296494	6
1	71	57.552277891944	7
1	78	62.729868222713	8
1	86	68.394864164647	9
1	89	70.325271997967	10
1	99	76.996384442415	11
1	108	82.618832496715	12
1	115	85.74096991182	13
1	127	95.132240465484	14
1	132	97.767552494086	15
1	145	112.012911772735	16
1	150	114.144485160897	17
1	157	119.272565247803	18
1	161	122.60722804827	19
1	170	128.682717125536	20
1	178	134.874573490213	21
1	187	142.87797490268	22
1	202	156.373004848882	23
1	212	164.173720438395	24
1	217	168.939278793335	25
1	221	172.229057359539	26
1	228	176.284269817695	27
1	231	177.79130323729	28
1	243	184.962824031647	29
1	247	188.687754938004	30
1	256	192.072698264599	31
1	261	196.437093434137	32
1	273	205.928540266112	33
1	295	226.970275851063	34
1	307	238.220395895665	35
2	2	0.294685056815	1
2	8	3.122276355438	2
2	24	16.305793715133	3
2	35	24.612052933031	4
2	40	27.934539859322	5
2	43	29.335108296494	6
2	71	57.552277891944	7
2	78	62.729868222713	8
2	86	68.394864164647	9
2	89	70.325271997967	10
2	99	76.996384442415	11
2	108	82.618832496715	12
2	115	85.74096991182	13
2	127	95.132240465484	14
2	132	97.767552494086	15
2	145	112.012911772735	16
2	150	114.144485160897	17
2	157	119.272565247803	18
2	161	122.60722804827	19
2	170	128.682717125536	20
2	178	134.874573490213	21
2	187	142.87797490268	22
2	202	156.373004848882	23
2	212	164.173720438395	24
2	217	168.939278793335	25
2	221	172.229057359539	26
2	228	176.284269817695	27
2	231	177.79130323729	28
2	243	184.962824031647	29
2	247	188.687754938004	30
2	256	192.072698264599	31
2	261	196.437093434137	32
2	273	205.928540266112	33
2	295	226.970275851063	34
2	307	238.220395895665	35
3	3	0.418212860518	1
3	44	29.39508098321	2
3	109	82.69534551753	3
3	146	112.040048055786	4
3	162	122.769727905338	5
3	188	142.991162075032	6
3	203	156.581169248621	7
3	232	177.833634290206	8
3	274	206.112379124439	9
4	3	0.418212860518	1
4	44	29.39508098321	2
4	109	82.69534551753	3
4	146	112.040048055786	4
4	162	122.769727905338	5
4	188	142.991162075032	6
4	203	156.581169248621	7
4	232	177.833634290206	8
4	274	206.112379124439	9
5	4	0.518707271908	1
5	45	29.439576979896	2
5	101	77.193117432786	3
5	110	82.869967103266	4
5	147	112.156627991339	5
5	163	122.854214630384	6
5	180	135.128426617469	7
5	189	143.054370854578	8
5	204	156.642379675011	9
5	233	177.951936321323	10
5	249	188.776161554172	11
5	275	206.280660187776	12
6	4	0.518707271908	1
6	45	29.439576979896	2
6	101	77.193117432786	3
6	110	82.869967103266	4
6	147	112.156627991339	5
6	163	122.854214630384	6
6	180	135.128426617469	7
6	189	143.054370854578	8
6	204	156.642379675011	9
6	233	177.951936321323	10
6	249	188.776161554172	11
6	275	206.280660187776	12
7	5	0.661427153776	1
7	46	29.51950836633	2
7	102	77.325605398813	3
7	111	82.965303193646	4
7	148	112.208329019749	5
7	164	122.967228929378	6
7	181	135.287149802464	7
7	190	143.122698586303	8
7	205	156.788364533688	9
7	234	177.997029262166	10
7	250	188.85067541281	11
7	276	206.48781632106	12
8	100	77.063647538967	1
8	171	128.818285170378	2
8	179	134.996343721697	3
8	248	188.716421718851	4
9	100	77.063647538967	1
9	171	128.818285170378	2
9	179	134.996343721697	3
9	248	188.716421718851	4

