version 3
run General-0-20231018-20:19:12-22348
attr configname General
attr datetime 20231018-20:19:12
attr datetimef 20231018-201912
attr experiment General
attr inifile omnetpp.ini
attr iterationvars ""
attr iterationvarsd ""
attr iterationvarsf ""
attr measurement ""
attr network Reliability
attr processid 22348
attr repetition 0
attr replication #0
attr resultdir results
attr runnumber 0
attr seedset 0
config network Reliability
config Reliability.node[*].transmissionTime "uniform(1s, 2s)"
config Reliability.node[*].delayTime "uniform(0.01s, 0.2s)"
config Reliability.node[0].lossProbability 0.5
config Reliability.node[1].lossProbability 0.6
config Reliability.node[2].lossProbability 0.7
config Reliability.node[3].lossProbability 0.1
config Reliability.node[4].lossProbability 0.2
config Reliability.node[5].lossProbability 0.1
config record-eventlog true
config sim-time-limit 240s
config repeat 5

vector 0 Reliability.node[0] txVector ETV
vector 1 Reliability.node[1] txVector ETV
vector 2 Reliability.node[1] rxVector ETV
vector 3 Reliability.node[3] txVector ETV
vector 4 Reliability.node[3] rxVector ETV
vector 5 Reliability.node[0] rxVector ETV
vector 6 Reliability.node[4] txVector ETV
vector 7 Reliability.node[4] rxVector ETV
vector 8 Reliability.node[5] rxVector ETV
vector 9 Reliability.node[5] e2eVector ETV
vector 10 Reliability.node[2] txVector ETV
vector 11 Reliability.node[2] rxVector ETV
0	1	0.114274565438	1
0	1	0.114274565438	1
0	1	0.114274565438	1
0	11	1.82946393041	2
0	11	1.82946393041	2
0	11	1.82946393041	2
0	23	3.621188963839	3
0	23	3.621188963839	3
0	23	3.621188963839	3
0	30	5.420347527676	4
0	30	5.420347527676	4
0	30	5.420347527676	4
0	32	7.17896314811	5
0	32	7.17896314811	5
0	32	7.17896314811	5
0	34	8.593625089229	6
0	34	8.593625089229	6
0	34	8.593625089229	6
0	46	9.779957433772	7
0	46	9.779957433772	7
0	46	9.779957433772	7
0	53	11.682306011981	8
0	53	11.682306011981	8
0	53	11.682306011981	8
0	60	12.997734361636	9
0	60	12.997734361636	9
0	60	12.997734361636	9
0	62	14.632793238694	10
0	62	14.632793238694	10
0	62	14.632793238694	10
0	64	16.285901560756	11
0	64	16.285901560756	11
0	64	16.285901560756	11
0	66	17.700270148768	12
0	66	17.700270148768	12
0	66	17.700270148768	12
0	78	18.944695736823	13
0	78	18.944695736823	13
0	78	18.944695736823	13
0	85	20.921155202045	14
0	85	20.921155202045	14
0	85	20.921155202045	14
0	87	22.900741932523	15
0	87	22.900741932523	15
0	87	22.900741932523	15
0	89	24.196882131817	16
0	89	24.196882131817	16
0	89	24.196882131817	16
0	91	25.885543318074	17
0	91	25.885543318074	17
0	91	25.885543318074	17
0	101	27.299806306446	18
0	101	27.299806306446	18
0	101	27.299806306446	18
0	103	28.618375261389	19
0	103	28.618375261389	19
0	103	28.618375261389	19
0	105	30.46071734054	20
0	105	30.46071734054	20
0	105	30.46071734054	20
0	115	32.17704453839	21
0	115	32.17704453839	21
0	115	32.17704453839	21
0	117	33.912238558829	22
0	117	33.912238558829	22
0	117	33.912238558829	22
0	119	35.345526622683	23
0	119	35.345526622683	23
0	119	35.345526622683	23
0	121	36.921683958573	24
0	121	36.921683958573	24
0	121	36.921683958573	24
0	123	38.817722347872	25
0	123	38.817722347872	25
0	123	38.817722347872	25
0	135	40.040803978527	26
0	135	40.040803978527	26
0	135	40.040803978527	26
0	137	41.733335570041	27
0	137	41.733335570041	27
0	137	41.733335570041	27
0	139	43.393003984196	28
0	139	43.393003984196	28
0	139	43.393003984196	28
0	141	45.349087623954	29
0	141	45.349087623954	29
0	141	45.349087623954	29
0	143	46.743956916109	30
0	143	46.743956916109	30
0	143	46.743956916109	30
0	145	48.350350132985	31
0	145	48.350350132985	31
0	145	48.350350132985	31
0	147	49.820482321391	32
0	147	49.820482321391	32
0	147	49.820482321391	32
0	149	51.480655859765	33
0	149	51.480655859765	33
0	149	51.480655859765	33
0	159	52.864118085783	34
0	159	52.864118085783	34
0	159	52.864118085783	34
0	161	54.18511532953	35
0	161	54.18511532953	35
0	161	54.18511532953	35
0	163	56.081661927821	36
0	163	56.081661927821	36
0	163	56.081661927821	36
0	165	57.178921854431	37
0	165	57.178921854431	37
0	165	57.178921854431	37
0	167	59.070845212629	38
0	167	59.070845212629	38
0	167	59.070845212629	38
0	174	60.607867729925	39
0	174	60.607867729925	39
0	174	60.607867729925	39
0	176	62.475993790506	40
0	176	62.475993790506	40
0	176	62.475993790506	40
0	188	63.984309240785	41
0	188	63.984309240785	41
0	188	63.984309240785	41
0	200	65.349805340479	42
0	200	65.349805340479	42
0	200	65.349805340479	42
0	202	66.813256316661	43
0	202	66.813256316661	43
0	202	66.813256316661	43
0	207	68.158607995213	44
0	207	68.158607995213	44
0	207	68.158607995213	44
0	219	69.65863428901	45
0	219	69.65863428901	45
0	219	69.65863428901	45
0	221	70.881077512475	46
0	221	70.881077512475	46
0	221	70.881077512475	46
0	223	72.825449901009	47
0	223	72.825449901009	47
0	223	72.825449901009	47
0	225	74.27755893914	48
0	225	74.27755893914	48
0	225	74.27755893914	48
0	230	75.504973568329	49
0	230	75.504973568329	49
0	230	75.504973568329	49
0	240	77.385978126972	50
0	240	77.385978126972	50
0	240	77.385978126972	50
0	250	79.100675059789	51
0	250	79.100675059789	51
0	250	79.100675059789	51
0	260	80.425358032416	52
0	260	80.425358032416	52
0	260	80.425358032416	52
0	270	82.214097453821	53
0	270	82.214097453821	53
0	270	82.214097453821	53
0	272	83.860361888846	54
0	272	83.860361888846	54
0	272	83.860361888846	54
0	274	85.137990597244	55
0	274	85.137990597244	55
0	274	85.137990597244	55
0	284	86.945570862228	56
0	284	86.945570862228	56
0	284	86.945570862228	56
0	286	88.110529733663	57
0	286	88.110529733663	57
0	286	88.110529733663	57
0	298	89.466142468694	58
0	298	89.466142468694	58
0	298	89.466142468694	58
0	300	90.566436413284	59
0	300	90.566436413284	59
0	300	90.566436413284	59
0	312	92.122085650526	60
0	312	92.122085650526	60
0	312	92.122085650526	60
0	314	93.577254467718	61
0	314	93.577254467718	61
0	314	93.577254467718	61
0	316	95.526573289493	62
0	316	95.526573289493	62
0	316	95.526573289493	62
0	328	97.242134441929	63
0	328	97.242134441929	63
0	328	97.242134441929	63
0	330	98.995704046525	64
0	330	98.995704046525	64
0	330	98.995704046525	64
0	332	100.635176563011	65
0	332	100.635176563011	65
0	332	100.635176563011	65
0	334	102.045668704509	66
0	334	102.045668704509	66
0	334	102.045668704509	66
0	336	103.867786439442	67
0	336	103.867786439442	67
0	336	103.867786439442	67
0	338	105.268918780916	68
0	338	105.268918780916	68
0	338	105.268918780916	68
0	350	106.493235804912	69
0	350	106.493235804912	69
0	350	106.493235804912	69
0	352	107.625723437945	70
0	352	107.625723437945	70
0	352	107.625723437945	70
0	359	109.578594109117	71
0	359	109.578594109117	71
0	359	109.578594109117	71
0	366	111.250641912063	72
0	366	111.250641912063	72
0	366	111.250641912063	72
0	368	112.506781495017	73
0	368	112.506781495017	73
0	368	112.506781495017	73
0	370	113.562155811888	74
0	370	113.562155811888	74
0	370	113.562155811888	74
0	372	115.050090383346	75
0	372	115.050090383346	75
0	372	115.050090383346	75
0	374	116.506230947402	76
0	374	116.506230947402	76
0	374	116.506230947402	76
0	381	117.948246266766	77
0	381	117.948246266766	77
0	381	117.948246266766	77
0	383	119.645243508582	78
0	383	119.645243508582	78
0	383	119.645243508582	78
0	393	121.492518825297	79
0	393	121.492518825297	79
0	393	121.492518825297	79
0	403	123.207697574123	80
0	403	123.207697574123	80
0	403	123.207697574123	80
0	405	124.764127000542	81
0	405	124.764127000542	81
0	405	124.764127000542	81
0	407	126.300304499995	82
0	407	126.300304499995	82
0	407	126.300304499995	82
0	409	127.949767531669	83
0	409	127.949767531669	83
0	409	127.949767531669	83
0	411	129.078628099365	84
0	411	129.078628099365	84
0	411	129.078628099365	84
0	423	130.22564199062	85
0	423	130.22564199062	85
0	423	130.22564199062	85
0	435	131.698862659819	86
0	435	131.698862659819	86
0	435	131.698862659819	86
0	437	133.256673959391	87
0	437	133.256673959391	87
0	437	133.256673959391	87
0	444	135.208548434153	88
0	444	135.208548434153	88
0	444	135.208548434153	88
0	446	136.842156321816	89
0	446	136.842156321816	89
0	446	136.842156321816	89
0	456	137.904869271051	90
0	456	137.904869271051	90
0	456	137.904869271051	90
0	466	139.090101595577	91
0	466	139.090101595577	91
0	466	139.090101595577	91
0	473	140.704566302318	92
0	473	140.704566302318	92
0	473	140.704566302318	92
0	475	142.284718021825	93
0	475	142.284718021825	93
0	475	142.284718021825	93
0	477	143.415773256524	94
0	477	143.415773256524	94
0	477	143.415773256524	94
0	479	144.906797997263	95
0	479	144.906797997263	95
0	479	144.906797997263	95
0	481	146.525278261007	96
0	481	146.525278261007	96
0	481	146.525278261007	96
0	493	147.899601456086	97
0	493	147.899601456086	97
0	493	147.899601456086	97
0	495	149.280330700875	98
0	495	149.280330700875	98
0	495	149.280330700875	98
0	507	150.946189815021	99
0	507	150.946189815021	99
0	507	150.946189815021	99
0	509	152.178816805669	100
0	509	152.178816805669	100
0	509	152.178816805669	100
0	516	154.116101169568	101
0	516	154.116101169568	101
0	516	154.116101169568	101
0	518	155.365521212649	102
0	518	155.365521212649	102
0	518	155.365521212649	102
0	528	156.855030534631	103
0	528	156.855030534631	103
0	528	156.855030534631	103
0	538	158.179435395943	104
0	538	158.179435395943	104
0	538	158.179435395943	104
0	548	159.380953108501	105
0	548	159.380953108501	105
0	548	159.380953108501	105
0	550	160.992701526108	106
0	550	160.992701526108	106
0	550	160.992701526108	106
0	552	162.145056228927	107
0	552	162.145056228927	107
0	552	162.145056228927	107
0	554	163.84113339738	108
0	554	163.84113339738	108
0	554	163.84113339738	108
0	556	165.445251202751	109
0	556	165.445251202751	109
0	556	165.445251202751	109
0	566	167.405507985344	110
0	566	167.405507985344	110
0	566	167.405507985344	110
0	568	168.678516888833	111
0	568	168.678516888833	111
0	568	168.678516888833	111
0	570	170.080230431008	112
0	570	170.080230431008	112
0	570	170.080230431008	112
0	572	171.968274136848	113
0	572	171.968274136848	113
0	572	171.968274136848	113
0	574	173.278654962388	114
0	574	173.278654962388	114
0	574	173.278654962388	114
0	576	175.173518157174	115
0	576	175.173518157174	115
0	576	175.173518157174	115
0	588	176.92411317614	116
0	588	176.92411317614	116
0	588	176.92411317614	116
0	600	178.546497598599	117
0	600	178.546497598599	117
0	600	178.546497598599	117
0	602	179.919176673127	118
0	602	179.919176673127	118
0	602	179.919176673127	118
0	607	181.477241771372	119
0	607	181.477241771372	119
0	607	181.477241771372	119
0	619	182.819852753619	120
0	619	182.819852753619	120
0	619	182.819852753619	120
0	631	184.420244987199	121
0	631	184.420244987199	121
0	631	184.420244987199	121
0	633	185.940197364969	122
0	633	185.940197364969	122
0	633	185.940197364969	122
0	635	187.746866694029	123
0	635	187.746866694029	123
0	635	187.746866694029	123
0	647	188.97462619383	124
0	647	188.97462619383	124
0	647	188.97462619383	124
0	657	190.897932257346	125
0	657	190.897932257346	125
0	657	190.897932257346	125
0	659	192.058399900404	126
0	659	192.058399900404	126
0	659	192.058399900404	126
0	661	193.656336627743	127
0	661	193.656336627743	127
0	661	193.656336627743	127
0	663	195.564212218701	128
0	663	195.564212218701	128
0	663	195.564212218701	128
0	673	196.710082373192	129
0	673	196.710082373192	129
0	673	196.710082373192	129
0	683	197.89444497049	130
0	683	197.89444497049	130
0	683	197.89444497049	130
0	690	198.899634590448	131
0	690	198.899634590448	131
0	690	198.899634590448	131
0	692	200.377281095442	132
0	692	200.377281095442	132
0	692	200.377281095442	132
0	694	202.010343104909	133
0	694	202.010343104909	133
0	694	202.010343104909	133
0	696	203.524855847313	134
0	696	203.524855847313	134
0	696	203.524855847313	134
0	698	205.453074555454	135
0	698	205.453074555454	135
0	698	205.453074555454	135
0	700	206.790551935165	136
0	700	206.790551935165	136
0	700	206.790551935165	136
0	702	208.383332206943	137
0	702	208.383332206943	137
0	702	208.383332206943	137
0	712	209.480136159184	138
0	712	209.480136159184	138
0	712	209.480136159184	138
0	714	211.293190020677	139
0	714	211.293190020677	139
0	714	211.293190020677	139
0	726	212.857254374381	140
0	726	212.857254374381	140
0	726	212.857254374381	140
0	728	214.290533109875	141
0	728	214.290533109875	141
0	728	214.290533109875	141
0	730	215.397537248283	142
0	730	215.397537248283	142
0	730	215.397537248283	142
0	740	217.3340053445	143
0	740	217.3340053445	143
0	740	217.3340053445	143
0	747	219.232764927046	144
0	747	219.232764927046	144
0	747	219.232764927046	144
0	757	221.092345761442	145
0	757	221.092345761442	145
0	757	221.092345761442	145
0	759	222.363597838282	146
0	759	222.363597838282	146
0	759	222.363597838282	146
0	761	223.598860683925	147
0	761	223.598860683925	147
0	761	223.598860683925	147
0	763	225.270244167493	148
0	763	225.270244167493	148
0	763	225.270244167493	148
0	770	227.126999415065	149
0	770	227.126999415065	149
0	770	227.126999415065	149
0	780	228.949406150336	150
0	780	228.949406150336	150
0	780	228.949406150336	150
0	782	230.686660393214	151
0	782	230.686660393214	151
0	782	230.686660393214	151
0	794	232.217520519698	152
0	794	232.217520519698	152
0	794	232.217520519698	152
0	796	234.209594366446	153
0	796	234.209594366446	153
0	796	234.209594366446	153
0	806	235.228717264093	154
0	806	235.228717264093	154
0	806	235.228717264093	154
0	808	236.493756964642	155
0	808	236.493756964642	155
0	808	236.493756964642	155
0	810	238.00751669945	156
0	810	238.00751669945	156
0	810	238.00751669945	156
0	812	239.863792882606	157
0	812	239.863792882606	157
0	812	239.863792882606	157
1	2	0.246915042552	1
1	2	0.246915042552	2
1	2	0.246915042552	3
1	12	1.940220301625	4
1	12	1.940220301625	5
1	12	1.940220301625	6
1	24	3.731174491442	7
1	24	3.731174491442	8
1	24	3.731174491442	9
1	35	8.663890655398	10
1	35	8.663890655398	11
1	35	8.663890655398	12
1	47	9.882993504778	13
1	47	9.882993504778	14
1	47	9.882993504778	15
1	54	11.844936378366	16
1	54	11.844936378366	17
1	54	11.844936378366	18
1	67	17.810462674742	19
1	67	17.810462674742	20
1	67	17.810462674742	21
1	79	19.149365286623	22
1	79	19.149365286623	23
1	79	19.149365286623	24
1	92	26.072833737773	25
1	92	26.072833737773	26
1	92	26.072833737773	27
1	106	30.603680426869	28
1	106	30.603680426869	29
1	106	30.603680426869	30
1	124	38.959117353102	31
1	124	38.959117353102	32
1	124	38.959117353102	33
1	150	51.555770605654	34
1	150	51.555770605654	35
1	150	51.555770605654	36
1	168	59.24402207107	37
1	168	59.24402207107	38
1	168	59.24402207107	39
1	177	62.526867447463	40
1	177	62.526867447463	41
1	177	62.526867447463	42
1	189	64.168921882725	43
1	189	64.168921882725	44
1	189	64.168921882725	45
1	203	66.999425179452	46
1	203	66.999425179452	47
1	203	66.999425179452	48
1	208	68.209899884948	49
1	208	68.209899884948	50
1	208	68.209899884948	51
1	226	74.48190390927	52
1	226	74.48190390927	53
1	226	74.48190390927	54
1	231	75.584214784926	55
1	231	75.584214784926	56
1	231	75.584214784926	57
1	241	77.576345672125	58
1	241	77.576345672125	59
1	241	77.576345672125	60
1	251	79.232455312099	61
1	251	79.232455312099	62
1	251	79.232455312099	63
1	261	80.48630449119	64
1	261	80.48630449119	65
1	261	80.48630449119	66
1	275	85.269479622857	67
1	275	85.269479622857	68
1	275	85.269479622857	69
1	287	88.154248015233	70
1	287	88.154248015233	71
1	287	88.154248015233	72
1	301	90.589558043226	73
1	301	90.589558043226	74
1	301	90.589558043226	75
1	317	95.725435053436	76
1	317	95.725435053436	77
1	317	95.725435053436	78
1	339	105.311843610251	79
1	339	105.311843610251	80
1	339	105.311843610251	81
1	353	107.655874601666	82
1	353	107.655874601666	83
1	353	107.655874601666	84
1	360	109.727302355765	85
1	360	109.727302355765	86
1	360	109.727302355765	87
1	375	116.65605440084	88
1	375	116.65605440084	89
1	375	116.65605440084	90
1	384	119.813195633983	91
1	384	119.813195633983	92
1	384	119.813195633983	93
1	394	121.520995161788	94
1	394	121.520995161788	95
1	394	121.520995161788	96
1	412	129.173236478807	97
1	412	129.173236478807	98
1	412	129.173236478807	99
1	424	130.37674674445	100
1	424	130.37674674445	101
1	424	130.37674674445	102
1	438	133.29519300983	103
1	438	133.29519300983	104
1	438	133.29519300983	105
1	447	137.042522842937	106
1	447	137.042522842937	107
1	447	137.042522842937	108
1	457	138.025920615627	109
1	457	138.025920615627	110
1	457	138.025920615627	111
1	467	139.155164520764	112
1	467	139.155164520764	113
1	467	139.155164520764	114
1	482	146.73038694224	115
1	482	146.73038694224	116
1	482	146.73038694224	117
1	496	149.420777581854	118
1	496	149.420777581854	119
1	496	149.420777581854	120
1	510	152.265035484723	121
1	510	152.265035484723	122
1	510	152.265035484723	123
1	519	155.405643382755	124
1	519	155.405643382755	125
1	519	155.405643382755	126
1	529	156.946146809401	127
1	529	156.946146809401	128
1	529	156.946146809401	129
1	539	158.378526280441	130
1	539	158.378526280441	131
1	539	158.378526280441	132
1	557	165.53798473387	133
1	557	165.53798473387	134
1	557	165.53798473387	135
1	577	175.198557441902	136
1	577	175.198557441902	137
1	577	175.198557441902	138
1	589	177.044830073091	139
1	589	177.044830073091	140
1	589	177.044830073091	141
1	603	180.0399787439	142
1	603	180.0399787439	143
1	603	180.0399787439	144
1	608	181.57808822222	145
1	608	181.57808822222	146
1	608	181.57808822222	147
1	620	182.926276130073	148
1	620	182.926276130073	149
1	620	182.926276130073	150
1	636	187.85445799146	151
1	636	187.85445799146	152
1	636	187.85445799146	153
1	648	189.017600872422	154
1	648	189.017600872422	155
1	648	189.017600872422	156
1	664	195.614656008422	157
1	664	195.614656008422	158
1	664	195.614656008422	159
1	674	196.902551635163	160
1	674	196.902551635163	161
1	674	196.902551635163	162
1	684	197.986311554072	163
1	684	197.986311554072	164
1	684	197.986311554072	165
1	703	208.470688358257	166
1	703	208.470688358257	167
1	703	208.470688358257	168
1	715	211.498672896289	169
1	715	211.498672896289	170
1	715	211.498672896289	171
1	731	215.529579244374	172
1	731	215.529579244374	173
1	731	215.529579244374	174
1	741	217.478790115597	175
1	741	217.478790115597	176
1	741	217.478790115597	177
1	748	219.439902255053	178
1	748	219.439902255053	179
1	748	219.439902255053	180
1	764	225.355740610703	181
1	764	225.355740610703	182
1	764	225.355740610703	183
1	771	227.265817472787	184
1	771	227.265817472787	185
1	771	227.265817472787	186
1	783	230.727519440777	187
1	783	230.727519440777	188
1	783	230.727519440777	189
1	797	234.297087155255	190
1	797	234.297087155255	191
1	797	234.297087155255	192
2	2	0.246915042552	1
2	12	1.940220301625	2
2	22	2.343945319091	3
2	24	3.731174491442	4
2	35	8.663890655398	5
2	39	8.770726676093	6
2	45	9.03550188655	7
2	47	9.882993504778	8
2	54	11.844936378366	9
2	59	12.181064793848	10
2	67	17.810462674742	11
2	74	17.996136573661	12
2	79	19.149365286623	13
2	92	26.072833737773	14
2	106	30.603680426869	15
2	111	30.789924243202	16
2	124	38.959117353102	17
2	150	51.555770605654	18
2	168	59.24402207107	19
2	172	59.369879412688	20
2	177	62.526867447463	21
2	183	62.75473056976	22
2	189	64.168921882725	23
2	192	64.321158758854	24
2	203	66.999425179452	25
2	208	68.209899884948	26
2	226	74.48190390927	27
2	231	75.584214784926	28
2	241	77.576345672125	29
2	246	77.753019702399	30
2	251	79.232455312099	31
2	254	79.331719270564	32
2	261	80.48630449119	33
2	275	85.269479622857	34
2	279	85.462793559269	35
2	287	88.154248015233	36
2	301	90.589558043226	37
2	306	90.810370906058	38
2	307	90.822345210281	39
2	317	95.725435053436	40
2	326	96.276437183228	41
2	339	105.311843610251	42
2	342	105.494291547776	43
2	353	107.655874601666	44
2	360	109.727302355765	45
2	364	110.004829279523	46
2	375	116.65605440084	47
2	378	116.812826489274	48
2	384	119.813195633983	49
2	394	121.520995161788	50
2	412	129.173236478807	51
2	417	129.34782007658	52
2	424	130.37674674445	53
2	426	130.484156727487	54
2	438	133.29519300983	55
2	447	137.042522842937	56
2	457	138.025920615627	57
2	467	139.155164520764	58
2	482	146.73038694224	59
2	486	146.950664527954	60
2	492	147.147369305831	61
2	496	149.420777581854	62
2	501	149.646745173541	63
2	510	152.265035484723	64
2	515	152.549510031774	65
2	519	155.405643382755	66
2	522	155.524771509933	67
2	529	156.946146809401	68
2	533	157.193584464814	69
2	539	158.378526280441	70
2	557	165.53798473387	71
2	577	175.198557441902	72
2	584	175.434026905388	73
2	589	177.044830073091	74
2	591	177.188688214282	75
2	603	180.0399787439	76
2	608	181.57808822222	77
2	612	181.690000246142	78
2	620	182.926276130073	79
2	636	187.85445799146	80
2	640	188.038241658487	81
2	643	188.164110759391	82
2	648	189.017600872422	83
2	664	195.614656008422	84
2	674	196.902551635163	85
2	684	197.986311554072	86
2	689	198.281712354225	87
2	703	208.470688358257	88
2	708	208.699509152522	89
2	715	211.498672896289	90
2	731	215.529579244374	91
2	733	215.692835907623	92
2	741	217.478790115597	93
2	748	219.439902255053	94
2	752	219.656161390327	95
2	764	225.355740610703	96
2	767	225.472381060263	97
2	771	227.265817472787	98
2	783	230.727519440777	99
2	797	234.297087155255	100
3	3	0.370442846255	1
3	3	0.370442846255	2
3	15	2.068148768739	3
3	15	2.068148768739	4
3	27	3.899475034816	5
3	27	3.899475034816	6
3	36	8.725035223173	7
3	36	8.725035223173	8
3	50	10.087257227812	9
3	50	10.087257227812	10
3	57	11.973273765797	11
3	57	11.973273765797	12
3	68	17.851433951183	13
3	68	17.851433951183	14
3	82	19.354949893875	15
3	82	19.354949893875	16
3	95	26.224403440449	17
3	95	26.224403440449	18
3	107	30.658486785928	19
3	107	30.658486785928	20
3	125	39.064071175023	21
3	125	39.064071175023	22
3	153	51.742676521969	23
3	153	51.742676521969	24
3	169	59.282940197186	25
3	169	59.282940197186	26
3	180	62.694887140917	27
3	180	62.694887140917	28
3	191	64.23276292763	29
3	191	64.23276292763	30
3	211	68.362728519693	31
3	211	68.362728519693	32
3	233	75.72156978957	33
3	233	75.72156978957	34
3	243	77.682988450571	35
3	243	77.682988450571	36
3	252	79.252465828668	37
3	252	79.252465828668	38
3	264	80.673561036042	39
3	264	80.673561036042	40
3	277	85.417700618426	41
3	277	85.417700618426	42
3	290	88.253477611466	43
3	290	88.253477611466	44
3	304	90.767835281216	45
3	304	90.767835281216	46
3	320	95.88005920172	47
3	320	95.88005920172	48
3	343	105.495659997932	49
3	343	105.495659997932	50
3	362	109.827204853502	51
3	362	109.827204853502	52
3	377	116.758407806336	53
3	377	116.758407806336	54
3	385	119.86708543115	55
3	385	119.86708543115	56
3	396	121.630199839804	57
3	396	121.630199839804	58
3	413	129.217824822965	59
3	413	129.217824822965	60
3	428	130.532833137099	61
3	428	130.532833137099	62
3	440	133.471138762584	63
3	440	133.471138762584	64
3	448	137.111672815412	65
3	448	137.111672815412	66
3	460	138.222485984173	67
3	460	138.222485984173	68
3	468	139.178129673521	69
3	468	139.178129673521	70
3	484	146.809299794577	71
3	484	146.809299794577	72
3	497	149.521354489395	73
3	497	149.521354489395	74
3	512	152.35756984677	75
3	512	152.35756984677	76
3	521	155.493683803024	77
3	521	155.493683803024	78
3	532	157.117298411322	79
3	532	157.117298411322	80
3	540	158.497258417325	81
3	540	158.497258417325	82
3	558	165.56165184872	83
3	558	165.56165184872	84
3	581	175.394147607164	85
3	581	175.394147607164	86
3	590	177.103765572699	87
3	590	177.103765572699	88
3	610	181.651111131499	89
3	610	181.651111131499	90
3	623	183.129202489769	91
3	623	183.129202489769	92
3	639	187.992883979316	93
3	639	187.992883979316	94
3	651	189.221575291202	95
3	651	189.221575291202	96
3	667	195.753506324099	97
3	667	195.753506324099	98
3	675	196.958186502719	99
3	675	196.958186502719	100
3	686	198.132446106683	101
3	686	198.132446106683	102
3	705	208.602983468702	103
3	705	208.602983468702	104
3	716	211.54023522056	105
3	716	211.54023522056	106
3	732	215.559555795173	107
3	732	215.559555795173	108
3	743	217.51593438219	109
3	743	217.51593438219	110
3	751	219.549320226305	111
3	751	219.549320226305	112
3	765	225.448206069467	113
3	765	225.448206069467	114
3	774	227.423822540612	115
3	774	227.423822540612	116
3	791	231.110107140725	117
3	791	231.110107140725	118
3	800	234.477214758986	119
3	800	234.477214758986	120
4	3	0.370442846255	1
4	8	0.539695413959	2
4	15	2.068148768739	3
4	20	2.242219931548	4
4	27	3.899475034816	5
4	36	8.725035223173	6
4	40	8.797043508917	7
4	50	10.087257227812	8
4	57	11.973273765797	9
4	68	17.851433951183	10
4	82	19.354949893875	11
4	95	26.224403440449	12
4	100	26.536127489311	13
4	107	30.658486785928	14
4	112	30.804415009515	15
4	125	39.064071175023	16
4	131	39.368245477513	17
4	153	51.742676521969	18
4	158	52.00009165377	19
4	169	59.282940197186	20
4	180	62.694887140917	21
4	191	64.23276292763	22
4	199	64.516553568698	23
4	211	68.362728519693	24
4	218	68.573013604527	25
4	233	75.72156978957	26
4	237	76.01014876986	27
4	243	77.682988450571	28
4	249	77.916561557305	29
4	252	79.252465828668	30
4	259	79.512652971203	31
4	264	80.673561036042	32
4	269	80.947220097296	33
4	277	85.417700618426	34
4	282	85.598363352611	35
4	290	88.253477611466	36
4	292	88.319659813195	37
4	304	90.767835281216	38
4	310	90.930271736532	39
4	320	95.88005920172	40
4	323	96.083873479788	41
4	343	105.495659997932	42
4	346	105.646974351787	43
4	362	109.827204853502	44
4	377	116.758407806336	45
4	385	119.86708543115	46
4	391	120.056169674885	47
4	396	121.630199839804	48
4	402	121.885656097343	49
4	413	129.217824822965	50
4	418	129.376912585639	51
4	428	130.532833137099	52
4	434	130.756930413734	53
4	440	133.471138762584	54
4	448	137.111672815412	55
4	460	138.222485984173	56
4	468	139.178129673521	57
4	484	146.809299794577	58
4	488	147.01504193292	59
4	497	149.521354489395	60
4	502	149.711146678432	61
4	512	152.35756984677	62
4	521	155.493683803024	63
4	526	155.759624946321	64
4	532	157.117298411322	65
4	535	157.26031835465	66
4	540	158.497258417325	67
4	547	158.86883989123	68
4	558	165.56165184872	69
4	565	165.824252946897	70
4	581	175.394147607164	71
4	583	175.415887847342	72
4	590	177.103765572699	73
4	610	181.651111131499	74
4	618	181.951258826802	75
4	623	183.129202489769	76
4	639	187.992883979316	77
4	645	188.227846367605	78
4	651	189.221575291202	79
4	654	189.328638490057	80
4	667	195.753506324099	81
4	675	196.958186502719	82
4	682	197.288297916995	83
4	686	198.132446106683	84
4	705	208.602983468702	85
4	709	208.785321921642	86
4	716	211.54023522056	87
4	725	211.790194011098	88
4	732	215.559555795173	89
4	737	215.814490427518	90
4	743	217.51593438219	91
4	751	219.549320226305	92
4	765	225.448206069467	93
4	774	227.423822540612	94
4	777	227.675571608347	95
4	791	231.110107140725	96
4	800	234.477214758986	97
4	805	234.627785481108	98
5	4	0.381440082924	1
5	14	2.060710336716	2
5	25	3.838855570374	3
5	41	8.823905109203	4
5	49	9.921856771571	5
5	93	26.105021762967	6
5	171	59.34912804407	7
5	206	67.195760625057	8
5	235	75.789731619083	9
5	255	79.351200438623	10
5	278	85.431424722327	11
5	302	90.61131365655	12
5	318	95.837805369534	13
5	340	105.350434062615	14
5	355	107.67852479732	15
5	361	109.793922126175	16
5	388	119.962653869339	17
5	397	121.634250698961	18
5	458	138.122159920065	19
5	511	152.333909846585	20
5	531	157.095368761744	21
5	592	177.199830468742	22
5	613	181.716312123874	23
5	621	183.058136655937	24
5	637	187.952415287785	25
5	650	189.195281372758	26
5	676	197.005156156392	27
5	688	198.190653696786	28
5	704	208.555932786158	29
5	722	211.700490160695	30
5	735	215.72832775958	31
5	784	230.763713722343	32
5	798	234.415535618961	33
6	7	0.508919948571	1
6	7	0.508919948571	2
6	7	0.508919948571	3
6	17	2.152254039449	4
6	17	2.152254039449	5
6	17	2.152254039449	6
6	37	8.748605284797	7
6	37	8.748605284797	8
6	37	8.748605284797	9
6	71	17.931702282688	10
6	71	17.931702282688	11
6	71	17.931702282688	12
6	97	26.341107543031	13
6	97	26.341107543031	14
6	97	26.341107543031	15
6	110	30.783522867919	16
6	110	30.783522867919	17
6	110	30.783522867919	18
6	129	39.269999650565	19
6	129	39.269999650565	20
6	129	39.269999650565	21
6	155	51.870969855165	22
6	155	51.870969855165	23
6	155	51.870969855165	24
6	184	62.792251967476	25
6	184	62.792251967476	26
6	184	62.792251967476	27
6	195	64.432146396572	28
6	195	64.432146396572	29
6	195	64.432146396572	30
6	212	68.410353197608	31
6	212	68.410353197608	32
6	212	68.410353197608	33
6	236	75.903946370353	34
6	236	75.903946370353	35
6	236	75.903946370353	36
6	245	77.729060330537	37
6	245	77.729060330537	38
6	245	77.729060330537	39
6	253	79.32443881499	40
6	253	79.32443881499	41
6	253	79.32443881499	42
6	265	80.792019171198	43
6	265	80.792019171198	44
6	265	80.792019171198	45
6	280	85.470933304149	46
6	280	85.470933304149	47
6	280	85.470933304149	48
6	289	88.217627348864	49
6	289	88.217627348864	50
6	289	88.217627348864	51
6	305	90.799986781717	52
6	305	90.799986781717	53
6	305	90.799986781717	54
6	322	96.061358476999	55
6	322	96.061358476999	56
6	322	96.061358476999	57
6	345	105.611565087232	58
6	345	105.611565087232	59
6	345	105.611565087232	60
6	389	119.998729362133	61
6	389	119.998729362133	62
6	389	119.998729362133	63
6	399	121.742997751525	64
6	399	121.742997751525	65
6	399	121.742997751525	66
6	416	129.341147954145	67
6	416	129.341147954145	68
6	416	129.341147954145	69
6	429	130.554688759177	70
6	429	130.554688759177	71
6	429	130.554688759177	72
6	451	137.272698031172	73
6	451	137.272698031172	74
6	451	137.272698031172	75
6	461	138.26119680482	76
6	461	138.26119680482	77
6	461	138.26119680482	78
6	487	146.982634133738	79
6	487	146.982634133738	80
6	487	146.982634133738	81
6	500	149.622643022161	82
6	500	149.622643022161	83
6	500	149.622643022161	84
6	524	155.687861935751	85
6	524	155.687861935751	86
6	524	155.687861935751	87
6	534	157.195147408177	88
6	534	157.195147408177	89
6	534	157.195147408177	90
6	544	158.659903741491	91
6	544	158.659903741491	92
6	544	158.659903741491	93
6	560	165.633868327139	94
6	560	165.633868327139	95
6	560	165.633868327139	96
6	580	175.333200073202	97
6	580	175.333200073202	98
6	580	175.333200073202	99
6	596	177.357772730096	100
6	596	177.357772730096	101
6	596	177.357772730096	102
6	614	181.750975232177	103
6	614	181.750975232177	104
6	614	181.750975232177	105
6	624	183.232929047488	106
6	624	183.232929047488	107
6	624	183.232929047488	108