version 3
run General-0-20231004-14:11:08-17472
attr configname General
attr datetime 20231004-14:11:08
attr datetimef 20231004-141108
attr experiment General
attr inifile omnetpp.ini
attr iterationvars ""
attr iterationvarsd ""
attr iterationvarsf ""
attr measurement ""
attr network Reliability
attr processid 17472
attr repetition 0
attr replication #0
attr resultdir results
attr runnumber 0
attr seedset 0
config network Reliability
config Reliability.node[*].transmissionTime "uniform(1s, 2s)"
config Reliability.node[*].delayTime "uniform(0.01s, 0.2s)"
config Reliability.node[*].lossProbability 0.2
config record-eventlog true
config sim-time-limit 240s
config repeat 5

vector 0 Reliability.node[0] txVector ETV
vector 1 Reliability.node[1] rxVector ETV
vector 2 Reliability.node[1] txVector ETV
vector 3 Reliability.node[3] rxVector ETV
vector 4 Reliability.node[3] txVector ETV
vector 5 Reliability.node[4] rxVector ETV
vector 6 Reliability.node[4] txVector ETV
vector 7 Reliability.node[5] rxVector ETV
vector 8 Reliability.node[2] rxVector ETV
vector 9 Reliability.node[2] txVector ETV
0	0	0	1
0	1	0.114274565438	2
0	6	0.236915042552	3
0	10	0.319947567114	4
0	16	0.484259625142	5
0	17	0.617412281688	6
0	20	0.697378173787	7
0	27	0.79736370139	8
0	31	0.909464614754	9
0	34	1.06656901519	10
0	38	1.138155805973	11
0	42	1.23364630399	12
0	44	1.255089142625	13
0	50	1.305061829341	14
0	57	1.502852857392	15
0	60	1.601451904226	16
0	62	1.739654845455	17
0	63	1.897540486983	18
0	68	2.087958986749	19
0	71	2.282628536549	20
0	73	2.407549184972	21
0	75	2.424994864875	22
0	80	2.491261502741	23
0	86	2.608647387213	24
0	88	2.795213664802	25
0	92	2.932021636289	26
0	94	3.017607579102	27
0	96	3.058946266613	28
0	98	3.096770201634	29
0	105	3.161580723798	30
0	109	3.300791282646	31
0	113	3.367304303461	32
0	119	3.544834021776	33
0	122	3.677192159115	34
0	127	3.776517274912	35
0	128	3.953423191227	36
0	130	3.98296722962	37
0	137	4.097812318087	38
0	141	4.19062665276	39
0	143	4.219544778876	40
0	146	4.389361403545	41
0	148	4.430235060502	42
0	150	4.463760857158	43
0	153	4.58188999858	44
0	156	4.778579240358	45
0	158	4.953191882298	46
0	162	5.125794517468	47
0	164	5.200281242514	48
0	165	5.27468841464	49
0	166	5.31879156556	50
0	169	5.361279018186	51
0	173	5.486847063028	52
0	178	5.59185205885	53
0	183	5.7308792763	54
0	185	5.781233471677	55
0	189	5.832795851571	56
0	191	5.859002009312	57
0	193	5.879721492886	58
0	197	6.075238327043	59
0	202	6.226566890088	60
0	205	6.325771355718	61
0	206	6.339695046619	62
0	215	6.517196273387	63
0	217	6.562467102595	64
0	222	6.613413561369	65
0	230	6.721871696525	66
0	234	6.843360722138	67
0	237	6.886593407861	68
0	239	6.935517902559	69
0	240	7.038248596635	70
0	242	7.115815016291	71
0	244	7.271226814253	72
0	249	7.452933564762	73
0	252	7.518441595597	74
0	257	7.634014950673	75
0	258	7.678524879738	76
0	263	7.785879638183	77
0	267	7.88236171345	78
0	271	8.026985861734	79
0	274	8.15438243321	80
0	277	8.312663496547	81
0	281	8.444163274679	82
0	285	8.530378419559	83
0	290	8.605663464461	84
0	295	8.673011330576	85
0	297	8.68566152623	86
0	299	8.797020004716	87
0	300	8.974763404409	88
0	301	9.032381721163	89
0	306	9.171089967811	90
0	311	9.253106384587	91
0	316	9.355813953164	92
0	318	9.44816735866	93
0	320	9.554942351158	94
0	324	9.690349924878	95
0	325	9.771374421384	96
0	326	9.893018352367	97
0	328	9.954854512786	98
0	331	10.002294825538	99
0	335	10.026916549889	100
0	338	10.219208885241	101
1	2	0.142870607559	1
1	7	0.250446633943	2
1	12	0.336486392786	3
1	18	0.658913980975	4
1	21	0.723518194536	5
1	28	0.821577348191	6
1	32	0.925555438986	7
1	35	1.078190380084	8
1	39	1.157650751808	9
1	43	1.254635428666	10
1	45	1.266469429509	11
1	52	1.316138180423	12
1	58	1.515655627477	13
1	64	1.918403180792	14
1	69	2.119012199757	15
1	74	2.420873287382	16
1	77	2.436258751239	17
1	83	2.521293907966	18
1	89	2.806626971938	19
1	97	3.077377096934	20
1	100	3.112449243169	21
1	106	3.177544517741	22
1	110	3.327600504691	23
1	115	3.389098132797	24
1	120	3.560347981677	25
1	123	3.699782594288	26
1	129	3.964392418773	27
1	132	3.993309263804	28
1	138	4.130061464659	29
1	142	4.204970109319	30
1	149	4.459074349368	31
1	154	4.596562724244	32
1	159	4.963309714617	33
1	167	5.335017539	34
1	174	5.497363892086	35
1	179	5.621823778525	36
1	186	5.799663259431	37
1	192	5.875693146549	38
1	195	5.899335888602	39
1	198	6.091750634362	40
1	203	6.242655219225	41
1	207	6.349975190274	42
1	209	6.373173484233	43
1	216	6.557728120083	44
1	220	6.601911905369	45
1	223	6.623673538821	46
1	231	6.751812088538	47
1	235	6.86555071559	48
1	245	7.282097900086	49
1	250	7.465688844132	50
1	253	7.528534425841	51
1	259	7.697210537053	52
1	264	7.816988525927	53
1	268	7.899256058828	54
1	272	8.037119114182	55
1	275	8.206401027472	56
1	278	8.327261409725	57
1	282	8.455449077052	58
1	287	8.555931363163	59
1	292	8.630589786103	60
1	302	9.05901137897	61
1	307	9.18210530865	62
1	312	9.269240775483	63
1	321	9.567256560878	64
1	329	9.971013705624	65
1	333	10.019610278929	66
2	2	0.142870607559	1
2	7	0.250446633943	2
2	12	0.336486392786	3
2	18	0.658913980975	4
2	21	0.723518194536	5
2	28	0.821577348191	6
2	32	0.925555438986	7
2	35	1.078190380084	8
2	39	1.157650751808	9
2	43	1.254635428666	10
2	45	1.266469429509	11
2	52	1.316138180423	12
2	58	1.515655627477	13
2	64	1.918403180792	14
2	69	2.119012199757	15
2	74	2.420873287382	16
2	77	2.436258751239	17
2	83	2.521293907966	18
2	89	2.806626971938	19
2	97	3.077377096934	20
2	100	3.112449243169	21
2	106	3.177544517741	22
2	110	3.327600504691	23
2	115	3.389098132797	24
2	120	3.560347981677	25
2	123	3.699782594288	26
2	129	3.964392418773	27
2	132	3.993309263804	28
2	138	4.130061464659	29
2	142	4.204970109319	30
2	149	4.459074349368	31
2	154	4.596562724244	32
2	159	4.963309714617	33
2	167	5.335017539	34
2	174	5.497363892086	35
2	179	5.621823778525	36
2	186	5.799663259431	37
2	192	5.875693146549	38
2	195	5.899335888602	39
2	198	6.091750634362	40
2	203	6.242655219225	41
2	207	6.349975190274	42
2	209	6.373173484233	43
2	216	6.557728120083	44
2	220	6.601911905369	45
2	223	6.623673538821	46
2	231	6.751812088538	47
2	235	6.86555071559	48
2	245	7.282097900086	49
2	250	7.465688844132	50
2	253	7.528534425841	51
2	259	7.697210537053	52
2	264	7.816988525927	53
2	268	7.899256058828	54
2	272	8.037119114182	55
2	275	8.206401027472	56
2	278	8.327261409725	57
2	282	8.455449077052	58
2	287	8.555931363163	59
2	292	8.630589786103	60
2	302	9.05901137897	61
2	307	9.18210530865	62
2	312	9.269240775483	63
2	321	9.567256560878	64
2	329	9.971013705624	65
2	333	10.019610278929	66
3	3	0.160742618959	1
3	13	0.372468933644	2
3	19	0.689317123554	3
3	23	0.748683554276	4
3	46	1.266509689326	5
3	54	1.379739183925	6
3	79	2.47129786907	7
3	102	3.131415151877	8
3	111	3.348853324859	9
3	124	3.713208590535	10
3	131	3.983329709556	11
3	139	4.147762233254	12
3	160	5.002155832138	13
3	180	5.644921632239	14
3	187	5.816405705127	15
3	199	6.109441832373	16
3	210	6.383174037752	17
3	224	6.635342285233	18
3	236	6.883884497996	19
3	254	7.553912712986	20
3	260	7.728126102779	21
3	265	7.855354927861	22
3	283	8.466478760689	23
3	293	8.642011041217	24
3	313	9.29073818936	25
4	3	0.160742618959	1
4	13	0.372468933644	2
4	19	0.689317123554	3
4	23	0.748683554276	4
4	46	1.266509689326	5
4	54	1.379739183925	6
4	79	2.47129786907	7
4	102	3.131415151877	8
4	111	3.348853324859	9
4	124	3.713208590535	10
4	131	3.983329709556	11
4	139	4.147762233254	12
4	160	5.002155832138	13
4	180	5.644921632239	14
4	187	5.816405705127	15
4	199	6.109441832373	16
4	210	6.383174037752	17
4	224	6.635342285233	18
4	236	6.883884497996	19
4	254	7.553912712986	20
4	260	7.728126102779	21
4	265	7.855354927861	22
4	283	8.466478760689	23
4	293	8.642011041217	24
4	313	9.29073818936	25
5	4	0.176253103826	1
5	9	0.308431777791	2
5	14	0.383205787199	3
5	22	0.737769342245	4
5	25	0.768897873019	5
5	37	1.136565010071	6
5	47	1.280440814899	7
5	51	1.305888755159	8
5	55	1.398458342461	9
5	66	1.9576228188	10
5	81	2.493089764341	11
5	101	3.124774919765	12
5	104	3.143939351806	13
5	112	3.36172742962	14
5	117	3.427495159351	15
5	125	3.732832341093	16
5	135	4.041641708742	17
5	171	5.385576298639	18
5	176	5.547294055348	19
5	181	5.658660497198	20
5	188	5.828985832766	21
5	200	6.142140232531	22
5	211	6.396631642927	23
5	212	6.39691167069	24
5	219	6.59745823081	25
5	226	6.658452008915	26
5	227	6.663874917149	27
5	247	7.315721040105	28
5	255	7.567221811798	29
5	261	7.742253401446	30
5	266	7.881409515492	31
5	284	8.4962976641	32
5	289	8.594857489529	33
5	294	8.652560114943	34
5	304	9.092618139427	35
5	309	9.204084652819	36
5	314	9.312633151873	37
5	332	10.010322150204	38
6	4	0.176253103826	1
6	9	0.308431777791	2
6	14	0.383205787199	3
6	22	0.737769342245	4
6	25	0.768897873019	5
6	37	1.136565010071	6
6	47	1.280440814899	7
6	51	1.305888755159	8
6	55	1.398458342461	9
6	66	1.9576228188	10
6	81	2.493089764341	11
6	101	3.124774919765	12
6	104	3.143939351806	13
6	112	3.36172742962	14
6	117	3.427495159351	15
6	125	3.732832341093	16
6	135	4.041641708742	17
6	171	5.385576298639	18
6	176	5.547294055348	19
6	181	5.658660497198	20
6	188	5.828985832766	21
6	200	6.142140232531	22
6	211	6.396631642927	23
6	212	6.39691167069	24
6	219	6.59745823081	25
6	226	6.658452008915	26
6	227	6.663874917149	27
6	247	7.315721040105	28
6	255	7.567221811798	29
6	261	7.742253401446	30
6	266	7.881409515492	31
6	284	8.4962976641	32
6	289	8.594857489529	33
6	294	8.652560114943	34
6	304	9.092618139427	35
6	309	9.204084652819	36
6	314	9.312633151873	37
6	332	10.010322150204	38
7	5	0.196634696833	1
7	11	0.334120738967	2
7	15	0.39411739746	3
7	24	0.749028086339	4
7	26	0.780445169824	5
7	40	1.158016399618	6
7	49	1.290832646463	7
7	53	1.318231770347	8
7	56	1.413808989232	9
7	67	1.968633166553	10
7	82	2.510202243713	11
7	103	3.143267127881	12
7	107	3.184462168375	13
7	114	3.375484818044	14
7	118	3.440115731768	15
7	126	3.748431951794	16
7	136	4.052664914891	17
7	172	5.397375872055	18
7	177	5.566812352423	19
7	182	5.673739148425	20
7	190	5.841920909285	21
7	201	6.198536757795	22
7	213	6.412173351217	23
7	214	6.428569307499	24
7	221	6.610387745395	25
7	228	6.670871205363	26
7	229	6.675938497085	27
7	248	7.328067598598	28
7	256	7.586050617248	29
7	262	7.784842611218	30
7	269	7.901364151926	31
7	286	8.54238707415	32
7	291	8.605703284447	33
7	296	8.675491593531	34
7	305	9.122318715083	35
7	310	9.217674266003	36
7	315	9.325967185257	37
7	334	10.023986663122	38
8	8	0.293595756742	1
8	29	0.836933005393	2
8	36	1.097785859858	3
8	48	1.285830045107	4
8	65	1.929424629607	5
8	76	2.435327482001	6
8	84	2.53228041105	7
8	90	2.835039796653	8
8	99	3.100664675672	9
8	116	3.409876481638	10
8	133	4.008955368815	11
8	144	4.282624014518	12
8	151	4.474374378149	13
8	168	5.349254110014	14
8	175	5.510080572789	15
8	208	6.368850209559	16
8	218	6.57433315088	17
8	225	6.643482860783	18
8	232	6.773046693533	19
8	246	7.305254162669	20
8	279	8.342851486425	21
8	288	8.580805660706	22
8	303	9.074467956118	23
8	308	9.193514987494	24
8	322	9.592280688815	25
8	330	9.993572640467	26
8	336	10.03496432244	27
9	8	0.293595756742	1
9	29	0.836933005393	2
9	36	1.097785859858	3
9	48	1.285830045107	4
9	65	1.929424629607	5
9	76	2.435327482001	6
9	84	2.53228041105	7
9	90	2.835039796653	8
9	99	3.100664675672	9
9	116	3.409876481638	10
9	133	4.008955368815	11
9	144	4.282624014518	12
9	151	4.474374378149	13
9	168	5.349254110014	14
9	175	5.510080572789	15
9	208	6.368850209559	16
9	218	6.57433315088	17
9	225	6.643482860783	18
9	232	6.773046693533	19
9	246	7.305254162669	20
9	279	8.342851486425	21
9	288	8.580805660706	22
9	303	9.074467956118	23
9	308	9.193514987494	24
9	322	9.592280688815	25
9	330	9.993572640467	26
9	336	10.03496432244	27

