version 3
run General-4-20231004-14:53:23-23464
attr configname General
attr datetime 20231004-14:53:23
attr datetimef 20231004-145323
attr experiment General
attr inifile omnetpp.ini
attr iterationvars ""
attr iterationvarsd ""
attr iterationvarsf ""
attr measurement ""
attr network Reliability
attr processid 23464
attr repetition 4
attr replication #4
attr resultdir results
attr runnumber 4
attr seedset 4
config network Reliability
config Reliability.node[*].transmissionTime "uniform(1s, 2s)"
config Reliability.node[*].delayTime "uniform(0.01s, 0.2s)"
config Reliability.node[*].lossProbability 0.2
config record-eventlog true
config sim-time-limit 240s
config repeat 5

vector 0 Reliability.node[0] txVector ETV
vector 1 Reliability.node[1] rxVector ETV
vector 2 Reliability.node[1] txVector ETV
vector 3 Reliability.node[2] rxVector ETV
vector 4 Reliability.node[2] txVector ETV
vector 5 Reliability.node[4] rxVector ETV
vector 6 Reliability.node[4] txVector ETV
vector 7 Reliability.node[5] rxVector ETV
vector 8 Reliability.node[3] rxVector ETV
vector 9 Reliability.node[3] txVector ETV
0	0	0	1
0	1	0.193735669288	2
0	6	0.37485374568	3
0	8	0.411731938524	4
0	11	0.554431784006	5
0	13	0.601991947635	6
0	19	0.643121973965	7
0	22	0.735989837199	8
0	25	0.895387974206	9
0	27	0.91787278657	10
0	32	1.092390510025	11
0	33	1.151975205014	12
0	34	1.168769260777	13
0	38	1.222234168113	14
0	42	1.30355417053	15
0	45	1.347559213063	16
0	48	1.40575834712	17
0	49	1.534495208619	18
0	52	1.714640429341	19
0	54	1.748614944871	20
0	59	1.888876703511	21
0	62	1.966587590579	22
0	66	2.115941408115	23
0	68	2.141137463708	24
0	73	2.1924492186	25
0	75	2.381799846489	26
0	78	2.504255839188	27
0	80	2.523477325742	28
0	85	2.631261527757	29
0	89	2.795188968046	30
0	92	2.896666357282	31
0	94	2.942581250518	32
0	99	3.070177935941	33
0	100	3.251638089124	34
0	101	3.447765179129	35
0	106	3.576243258481	36
0	107	3.652259012628	37
0	109	3.673446229952	38
0	111	3.707009007968	39
0	117	3.794648096682	40
0	119	3.947683934692	41
0	120	4.142606754209	42
0	122	4.160224067307	43
0	124	4.176660814578	44
0	133	4.288292308731	45
0	138	4.476112137211	46
0	141	4.579153073346	47
0	144	4.666975437279	48
0	145	4.737067973385	49
0	150	4.890300508856	50
0	155	5.049955652349	51
0	160	5.186896980167	52
0	162	5.250194355272	53
0	163	5.398462802837	54
0	168	5.539522008697	55
0	169	5.552653896151	56
0	172	5.622193555121	57
0	173	5.691512511595	58
0	174	5.724017160317	59
0	176	5.805331787882	60
0	181	5.917510305092	61
0	186	6.10485234713	62
0	188	6.150042101725	63
0	192	6.300157977329	64
0	194	6.494781608358	65
0	199	6.558978081148	66
0	202	6.616762789712	67
0	205	6.631589112988	68
0	208	6.67663677353	69
0	209	6.790909746804	70
0	214	6.914871269826	71
0	216	7.110293273575	72
0	220	7.301544908672	73
0	222	7.332801028779	74
0	226	7.53242454235	75
0	228	7.554312254442	76
0	233	7.630761163004	77
0	234	7.696020735118	78
0	235	7.847727972285	79
0	237	8.038545004797	80
0	241	8.109414288804	81
0	244	8.175358474396	82
0	248	8.261681301214	83
0	251	8.387601516591	84
0	252	8.536342429539	85
0	255	8.659678052139	86
0	257	8.707498625912	87
0	262	8.844314986439	88
0	266	8.923470677465	89
0	272	9.091926286867	90
0	276	9.198029629338	91
0	281	9.315660835848	92
0	284	9.347198647853	93
0	290	9.450738674082	94
0	292	9.640869657422	95
0	295	9.702757931633	96
0	300	9.815253088311	97
0	301	9.985656591395	98
0	304	10.042168453547	99
0	308	10.13043255713	100
0	312	10.170280315941	101
0	317	10.272345737933	102
0	320	10.379530054419	103
0	321	10.427716692057	104
0	329	10.516688733864	105
0	334	10.659128507268	106
0	337	10.697196638872	107
0	339	10.792850108362	108
0	344	10.977304935617	109
0	349	11.101216057337	110
0	353	11.18480145302	111
0	358	11.332436883935	112
0	363	11.435892804287	113
0	367	11.518214383073	114
0	369	11.65612171346	115
0	373	11.721004149291	116
0	376	11.841216213534	117
0	380	11.952886024763	118
0	386	12.115211701806	119
0	388	12.1274767536	120
0	389	12.320194926255	121
0	391	12.420431069925	122
0	394	12.450929072315	123
0	398	12.569503682679	124
0	402	12.615165298855	125
0	408	12.708665394491	126
0	411	12.77030614331	127
0	412	12.829104873492	128
0	414	13.002756306651	129
0	416	13.047956899822	130
0	418	13.076358480086	131
0	425	13.256223365905	132
0	426	13.331511217962	133
0	427	13.366018137011	134
0	430	13.470043383449	135
0	434	13.546012791664	136
0	437	13.589455353295	137
0	442	13.656137482476	138
0	447	13.81276012272	139
0	449	13.834422326275	140
0	457	13.959693138516	141
0	461	14.053837532243	142
0	464	14.245880102709	143
0	468	14.310623436645	144
0	469	14.324237023597	145
0	478	14.422697233034	146
0	481	14.495646937196	147
0	484	14.630837759566	148
0	489	14.740859107316	149
0	494	14.926840182174	150
0	499	15.109086930376	151
0	500	15.26621143208	152
0	501	15.28856117956	153
0	510	15.426788515382	154
0	511	15.593738543278	155
0	512	15.69764921473	156
0	517	15.845794756265	157
0	519	16.014219020693	158
0	520	16.144496634006	159
0	521	16.157136875044	160
0	522	16.354892294921	161
0	526	16.405997156021	162
0	532	16.533730722158	163
0	534	16.568183816164	164
0	538	16.688862631414	165
0	539	16.763614163888	166
0	540	16.836323026021	167
0	543	17.016059138857	168
0	544	17.068035622237	169
0	548	17.091902125387	170
0	554	17.287279386472	171
0	555	17.301302341871	172
0	560	17.418948927527	173
0	562	17.513781518439	174
0	563	17.529462565501	175
0	564	17.557711143241	176
0	567	17.652514531262	177
0	568	17.778274605899	178
0	571	17.811314107544	179
0	573	17.851062915415	180
0	576	17.868882029028	181
0	577	17.910281628039	182
0	585	18.069843405617	183
0	589	18.231434608245	184
0	591	18.336570664056	185
0	595	18.47950119651	186
0	596	18.579169986614	187
0	597	18.726024491808	188
0	599	18.746891108565	189
0	602	18.893625506966	190
0	606	18.956312030738	191
0	610	19.138775543827	192
0	612	19.318852830471	193
0	613	19.430784074313	194
0	614	19.56392171955	195
0	615	19.57868431404	196
0	617	19.631788147315	197
0	620	19.758420471525	198
0	622	19.791584054555	199
0	625	19.810349850177	200
0	634	19.930771805413	201
0	638	20.118389319821	202
0	639	20.137679954028	203
0	642	20.174004600329	204
0	649	20.343156205822	205
0	651	20.475322998565	206
0	652	20.585234622714	207
0	656	20.733834197324	208
0	658	20.861869700268	209
0	663	21.035049716657	210
0	664	21.137686949618	211
0	666	21.171722895691	212
0	668	21.241834101839	213
0	671	21.400676478643	214
0	672	21.414067686176	215
0	673	21.506076715089	216
0	677	21.676322780718	217
0	682	21.742485311328	218
0	683	21.939569204027	219
0	687	22.001992354296	220
0	693	22.169459211608	221
0	694	22.277988445925	222
0	696	22.332990721058	223
0	698	22.365133817509	224
0	702	22.477223693359	225
0	707	22.594800396926	226
0	708	22.731011708219	227
0	711	22.810291285364	228
0	714	22.839539748659	229
0	718	23.010872974431	230
0	723	23.194722683707	231
0	724	23.391162272077	232
0	725	23.435891827817	233
0	730	23.60662124996	234
0	731	23.640861726596	235
0	736	23.80513154675	236
0	741	23.965955439263	237
0	743	24.020544710617	238
0	748	24.082378043399	239
0	749	24.278965552695	240
0	752	24.417957369668	241
0	754	24.444168356321	242
0	758	24.621866020962	243
0	760	24.789033046259	244
0	762	24.831337613358	245
0	769	24.898615621626	246
0	772	25.064686442976	247
0	773	25.16663332269	248
0	774	25.329387307276	249
0	775	25.370718385661	250
0	780	25.488837048116	251
0	783	25.556185071275	252
0	788	25.702725022195	253
0	789	25.780552853362	254
0	794	25.938875796071	255
0	795	26.125936725196	256
0	800	26.281657688425	257
0	802	26.340913013672	258
0	804	26.423151608718	259
0	807	26.475940207165	260
0	811	26.583148767703	261
0	817	26.665344215079	262
0	818	26.817497537245	263
0	821	26.934453753994	264
0	822	26.949542588002	265
0	831	27.086403470314	266
0	834	27.149065942601	267
0	836	27.274816267488	268
0	838	27.384090957772	269
0	843	27.581015971836	270
0	848	27.682820447744	271
0	852	27.80811755561	272
0	854	27.870503866567	273
0	859	28.024308932048	274
0	864	28.206877816356	275
0	867	28.23925631208	276
0	870	28.340842998243	277
0	874	28.486528899207	278
0	876	28.646955910018	279
0	881	28.81526629939	280
0	884	28.967938463837	281
0	888	29.161548596227	282
0	890	29.325846448119	283
0	893	29.511662630387	284
0	895	29.600883416558	285
0	900	29.709397533218	286
0	901	29.863830001216	287
0	903	29.887765614019	288
0	909	30.015954469453	289
0	914	30.176898110478	290
0	917	30.221361255214	291
0	920	30.39870568633	292
0	921	30.50852549218	293
0	924	30.611173218662	294
0	926	30.713534929397	295
0	927	30.857297679292	296
0	931	31.051951970362	297
0	935	31.12759663328	298
0	937	31.259298275674	299
0	938	31.2814396178	300
0	940	31.372254081429	301
0	941	31.561490841827	302
0	946	31.687123024743	303
0	949	31.751048609351	304
0	951	31.864942413084	305
0	954	31.947737761074	306
0	960	32.073774421061	307
0	965	32.248922108623	308
0	970	32.387347489965	309
0	975	32.486973745049	310
0	978	32.570582895602	311
0	981	32.611012838045	312
0	984	32.765529179759	313
0	989	32.923550846928	314
0	993	33.080725327772	315
0	998	33.197146794805	316
0	1001	33.384043072657	317
0	1006	33.485300315024	318
0	1011	33.588628203686	319
0	1016	33.724987238472	320
0	1018	33.748015010693	321
0	1020	33.938004881219	322
0	1022	34.117202537033	323
0	1024	34.134214427354	324
0	1025	34.322958496482	325
0	1028	34.48298136298	326
0	1029	34.537284474328	327
0	1030	34.551937154773	328
0	1033	34.698017392083	329
0	1034	34.786156362571	330
0	1037	34.84835377117	331
0	1044	34.978923754861	332
0	1046	35.1382514534	333
0	1047	35.196428876772	334
0	1048	35.251815769334	335
0	1051	35.367269018501	336
0	1052	35.531269285084	337
0	1056	35.661186051011	338
0	1060	35.854831703762	339
0	1065	36.02645381813	340
0	1070	36.155608387613	341
0	1071	36.247969316724	342
0	1076	36.440758849543	343
0	1081	36.598950126602	344
0	1082	36.736115808217	345
0	1083	36.892596596698	346
0	1084	37.03443455629	347
0	1087	37.228784740068	348
0	1092	37.395854363678	349
0	1097	37.515620437857	350
0	1102	37.639754837422	351
0	1107	37.75241799621	352
0	1110	37.816969599531	353
0	1114	37.88121664115	354
0	1120	38.029518637529	355
0	1123	38.218489531844	356
0	1128	38.297616649749	357
0	1133	38.412324711296	358
0	1138	38.565503528956	359
0	1139	38.685847387493	360
0	1140	38.736316709502	361
0	1142	38.904886570778	362
0	1143	38.92736989507	363
0	1144	38.948728336699	364
0	1148	39.004143704749	365
0	1150	39.015424067918	366
0	1157	39.090551037234	367
0	1158	39.215212885195	368
0	1161	39.247481229892	369
0	1164	39.441081046376	370
0	1166	39.55842969459	371
0	1169	39.71361767306	372
0	1174	39.829358833786	373
0	1175	39.931316680808	374
0	1180	40.062631920865	375
0	1183	40.160997198546	376
0	1184	40.17108060927	377
0	1187	40.303056748767	378
0	1189	40.496242200939	379
0	1194	40.690050454495	380
0	1196	40.733759412355	381
0	1199	40.763678847688	382
0	1202	40.897631388206	383
0	1203	41.096275128682	384
0	1205	41.125102191727	385
0	1212	41.244158631383	386
0	1217	41.443312868321	387
0	1221	41.521942518909	388
0	1226	41.598515385919	389
0	1231	41.780631170039	390
0	1232	41.817328606256	391
0	1234	41.967330823835	392
0	1235	41.983865454498	393
0	1240	42.08473087973	394
0	1243	42.115837933019	395
0	1250	42.249261357552	396
0	1251	42.389464862811	397
0	1254	42.459817508244	398
0	1261	42.597706269097	399
0	1265	42.701619770663	400
0	1268	42.752208380048	401
0	1273	42.859568993501	402
0	1277	42.960468635848	403
0	1278	43.044652272829	404
0	1283	43.1965258174	405
0	1284	43.243163565943	406
0	1288	43.389614781897	407
0	1289	43.462711041718	408
0	1293	43.547311230085	409
0	1296	43.60882433173	410
0	1298	43.693713414001	411
0	1302	43.790995783147	412
0	1304	43.929921008616	413
0	1308	43.983214168888	414
0	1314	44.089887416076	415
0	1315	44.106012440514	416
0	1317	44.161972135104	417
0	1321	44.302997319734	418
0	1323	44.472377603581	419
0	1324	44.543862805877	420
0	1325	44.666361798756	421
0	1327	44.834218031496	422
0	1331	44.884511101173	423
0	1334	45.042707867747	424
0	1335	45.221677268298	425
0	1338	45.291796185585	426
0	1341	45.49005962005	427
0	1345	45.574144541878	428
0	1350	45.683938160619	429
0	1352	45.707908879629	430
0	1353	45.722315310148	431
0	1358	45.806003000442	432
0	1361	45.858265089308	433
0	1367	45.934789051538	434
0	1372	46.103990962071	435
0	1377	46.279087795071	436
0	1382	46.385366091803	437
0	1386	46.55503803256	438
0	1387	46.719232808866	439
0	1392	46.873440752132	440
0	1396	47.032321306132	441
0	1397	47.176749019993	442
0	1402	47.327861923256	443
0	1405	47.365418459088	444
0	1410	47.456843342378	445
0	1415	47.631694658384	446
0	1416	47.725559309862	447
0	1421	47.866064517732	448
0	1423	47.885896429432	449
0	1424	47.896086590489	450
0	1436	47.989863772114	451
0	1441	48.0845690479	452
0	1445	48.163902643762	453
0	1448	48.341053990011	454
0	1450	48.536408000581	455
0	1455	48.649058326375	456
0	1458	48.762137286187	457
0	1460	48.79383120984	458
0	1468	48.919992136701	459
0	1470	49.110449697801	460
0	1473	49.223859959	461
0	1474	49.274041323443	462
0	1476	49.429821980305	463
0	1477	49.593688400137	464
0	1479	49.735281208847	465
0	1483	49.867330530354	466
0	1488	49.979403340889	467
0	1490	50.014773030584	468
0	1496	50.056148217086	469
0	1502	50.134804851197	470
0	1505	50.172024814972	471
0	1507	50.197452803672	472
0	1517	50.326070939748	473
0	1518	50.383853174488	474
0	1520	50.425979080948	475
0	1523	50.55836632381	476
0	1527	50.625467103373	477
0	1532	50.681305862949	478
0	1535	50.765056770728	479
0	1537	50.823671545137	480
0	1538	50.918195723533	481
0	1543	51.086612450322	482
0	1545	51.265200248207	483
0	1549	51.340738393527	484
0	1551	51.364024758602	485
0	1558	51.523732580449	486
0	1560	51.628555514672	487
0	1563	51.662447767229	488
0	1569	51.781605400771	489
0	1570	51.79759677337	490
0	1579	51.921831659148	491
0	1582	51.984670166294	492
0	1589	52.162716243113	493
0	1592	52.295650224848	494
0	1595	52.33202705665	495
0	1601	52.389382459135	496
0	1604	52.550696563299	497
0	1605	52.562664495033	498
0	1610	52.752407228974	499
0	1611	52.765668214382	500
0	1613	52.812926501014	501
0	1614	52.832780373873	502
0	1622	53.013963712998	503
0	1627	53.120574440862	504
0	1630	53.153214297224	505
0	1633	53.219679787021	506
0	1634	53.23158593639	507
0	1643	53.407130143789	508
0	1644	53.437198639836	509
0	1649	53.608695437345	510
0	1653	53.747836304282	511
0	1657	53.845309870314	512
0	1662	54.01123898571	513
0	1663	54.165981603753	514
0	1667	54.246609332205	515
0	1672	54.30526159056	516
0	1675	54.354863746718	517
0	1678	54.492697878417	518
0	1680	54.686741289487	519
0	1681	54.800216617975	520
0	1684	54.842979720498	521
0	1688	54.962846948218	522
0	1689	55.079475712669	523
0	1690	55.095527234373	524
0	1697	55.262067248791	525
0	1701	55.365778120118	526
0	1704	55.426533977478	527
0	1708	55.503613436653	528
0	1710	55.514202174826	529
0	1716	55.575784480395	530
0	1722	55.687937496756	531
0	1727	55.873119508829	532
0	1732	56.02419651947	533
0	1734	56.091589561294	534
0	1736	56.248623669954	535
0	1738	56.380029859611	536
0	1743	56.503661050231	537
0	1744	56.659229417658	538
0	1746	56.720560918043	539
0	1747	56.736884088244	540
0	1749	56.920854407607	541
0	1753	57.047740840681	542
0	1755	57.083302392333	543
0	1756	57.22421575525	544
0	1757	57.341829462561	545
0	1761	57.422266536483	546
0	1762	57.578253695765	547
0	1763	57.755919654009	548
0	1764	57.825960091409	549
0	1765	57.978342096131	550
0	1767	58.117507574515	551
0	1768	58.299774578773	552
0	1769	58.450781768372	553
0	1770	58.493816146467	554
0	1773	58.657155608722	555
0	1778	58.771234775522	556
0	1783	58.934271408826	557
0	1784	59.002745253375	558
0	1788	59.077508338467	559
0	1791	59.26931431776	560
0	1793	59.462328408932	561
0	1795	59.643419369574	562
0	1798	59.830975095069	563
0	1803	60.019221461269	564
0	1806	60.107169290258	565
0	1810	60.18165197732	566
0	1813	60.210319659676	567
0	1820	60.311611824707	568
0	1823	60.340126618362	569
0	1828	60.4341074849	570
0	1833	60.528691925782	571
0	1834	60.699579148351	572
0	1836	60.881030662949	573
0	1837	60.974860528502	574
0	1838	60.997154436393	575
0	1839	61.02822557671	576
0	1842	61.062634828778	577
0	1846	61.237464545977	578
0	1847	61.430586636935	579
0	1851	61.559187850009	580
0	1854	61.603085941812	581
0	1861	61.777740289622	582
0	1862	61.965049590363	583
0	1864	62.004857163005	584
0	1869	62.089167080919	585
0	1874	62.203594609864	586
0	1876	62.329305941499	587
0	1878	62.370580202329	588
0	1883	62.565737243995	589
0	1885	62.607361019719	590
0	1889	62.633809644566	591
0	1895	62.745703970441	592
0	1900	62.86739299808	593
0	1901	62.987789890334	594
0	1902	63.049344862326	595
0	1904	63.201749749194	596
0	1905	63.377715864073	597
0	1906	63.404206449202	598
0	1910	63.456236509274	599
0	1915	63.496393646356	600
0	1921	63.585334785921	601
0	1923	63.749621565352	602
0	1924	63.84699379054	603
0	1927	63.995621978395	604
0	1928	64.018368320429	605
0	1932	64.097253339022	606
0	1936	64.12268867735	607
0	1941	64.236067747212	608
0	1946	64.315191453541	609
0	1951	64.394899448735	610
0	1953	64.592862578769	611
0	1957	64.631964897936	612
0	1962	64.762220022554	613
0	1967	64.883457540797	614
0	1972	65.076835532295	615
0	1974	65.109998040522	616
0	1980	65.219805953742	617
0	1984	65.346602298438	618
0	1985	65.360406349962	619
0	1988	65.505737428069	620
0	1993	65.612254310569	621
0	1995	65.769547407746	622
0	1998	65.832834017843	623
0	2001	65.867402964202	624
0	2006	65.958142782611	625
0	2008	66.018616889811	626
0	2013	66.143168155603	627
0	2015	66.162621674578	628
0	2018	66.289719383864	629
0	2020	66.32470682595	630
0	2025	66.496593620075	631
0	2029	66.689729296291	632
0	2033	66.739691784774	633
0	2036	66.83353172182	634
0	2041	67.004774987371	635
0	2043	67.122048240755	636
0	2046	67.206559306499	637
0	2049	67.347562612208	638
0	2050	67.41118381702	639
0	2055	67.51476068495	640
0	2056	67.601405207176	641
0	2061	67.673399483644	642
0	2062	67.769860183328	643
0	2067	67.927879092136	644
0	2070	67.981447106334	645
0	2073	68.026004402737	646
0	2078	68.125866860675	647
0	2079	68.221307568359	648
0	2084	68.335682740779	649
0	2087	68.394067586939	650
0	2089	68.437459625261	651
0	2099	68.624188318519	652
0	2104	68.794889641417	653
0	2106	68.828204663739	654
0	2110	68.996484214306	655
0	2111	69.034868676289	656
0	2115	69.101455861902	657
0	2117	69.236975631189	658
0	2119	69.257169484674	659
0	2125	69.409673758977	660
0	2128	69.517512547545	661
0	2132	69.6755826972	662
0	2137	69.811246528504	663
0	2142	69.944096644795	664
0	2143	70.041016265877	665
0	2148	70.199720285972	666
0	2151	70.351224039508	667
0	2154	70.406351354924	668
0	2157	70.428584696237	669
0	2158	70.593360109356	670
0	2163	70.706953798261	671
0	2168	70.872869943481	672
0	2173	70.972198596888	673
0	2174	70.994782623407	674
0	2180	71.178421163394	675
0	2182	71.245298651974	676
0	2186	71.319657638229	677
0	2190	71.360152919448	678
0	2196	71.43862166146	679
0	2201	71.528046497595	680
0	2203	71.603582643056	681
0	2205	71.636037175457	682
0	2207	71.655959000487	683
0	2216	71.830549927672	684
0	2217	72.02932614742	685
0	2222	72.17177326824	686
0	2225	72.23407454322	687
0	2227	72.400808628301	688
0	2228	72.566188914941	689
0	2233	72.750680204027	690
0	2234	72.941404034747	691
0	2237	73.059218952661	692
0	2239	73.200271935897	693
0	2242	73.381205849085	694
0	2243	73.447981729138	695
0	2244	73.587129149333	696
0	2245	73.59747027532	697
0	2249	73.631989364105	698
0	2256	73.711417943791	699
0	2261	73.864478132201	700
0	2266	73.976942869227	701
0	2267	74.159645325702	702
0	2270	74.193250305538	703
0	2272	74.216897882872	704
0	2280	74.38407237746	705
0	2283	74.498769551636	706
0	2285	74.688015452497	707
0	2290	74.755240299422	708
0	2291	74.942437783405	709
0	2293	75.141091234481	710
0	2294	75.194660546262	711
0	2295	75.392523573005	712
0	2298	75.587716506188	713
0	2299	75.739152655263	714
0	2300	75.765650065315	715
0	2309	75.915077362095	716
0	2314	76.107993008806	717
0	2315	76.145288328393	718
0	2317	76.276064486834	719
0	2321	76.363197162149	720
0	2326	76.493905347937	721
0	2331	76.633117221312	722
0	2333	76.819694813343	723
0	2336	76.869522876222	724
0	2339	76.968618245366	725
0	2343	77.030781320284	726
0	2346	77.104972151145	727
0	2350	77.273572444636	728
0	2351	77.410784199412	729
0	2356	77.604836718076	730
0	2361	77.773600167601	731
0	2363	77.861176233698	732
0	2368	77.97748060817	733
0	2372	78.109258359702	734
0	2375	78.159245979869	735
0	2380	78.303341983011	736
0	2382	78.353520080004	737
0	2386	78.439085966229	738
0	2388	78.548164276459	739
0	2390	78.722125668423	740
0	2395	78.877444490869	741
0	2397	79.006076732706	742
0	2402	79.093711169106	743
0	2404	79.253614592422	744
0	2405	79.405048426443	745
0	2406	79.421042073972	746
0	2408	79.43999968227	747
0	2419	79.584983811188	748
0	2421	79.628122277472	749
0	2423	79.808908616647	750
0	2426	79.906764833781	751
0	2427	79.972201198547	752
0	2429	79.997081540216	753
0	2436	80.113496237004	754
0	2437	80.266838442239	755
0	2442	80.424524463071	756
0	2447	80.527644241224	757
0	2452	80.585798322465	758
0	2453	80.638319876333	759
0	2455	80.774964258742	760
0	2458	80.925921313529	761
0	2463	81.066950518183	762
0	2464	81.129472762059	763
0	2469	81.254320015157	764
0	2470	81.309965898978	765
0	2471	81.356566776269	766
0	2473	81.520560893131	767
0	2474	81.590206469215	768
0	2475	81.620897467378	769
0	2479	81.768845568788	770
0	2480	81.967934883935	771
0	2485	82.065899893774	772
0	2486	82.229534447165	773
0	2491	82.395363733943	774
0	2493	82.431768792528	775
0	2495	82.620123928606	776
0	2497	82.76027910453	777
0	2498	82.952598977971	778
0	2500	83.099277719927	779
0	2504	83.195546244317	780
0	2505	83.386383412426	781
0	2506	83.413310829859	782
0	2512	83.474152695145	783
0	2517	83.608645660781	784
0	2521	83.676426578724	785
0	2523	83.696071330196	786
0	2525	83.711329162683	787
0	2533	83.80334179897	788
0	2538	83.953559239881	789
0	2543	84.058678149068	790
0	2548	84.240869759602	791
0	2553	84.381712600132	792
0	2554	84.568800731049	793
0	2555	84.582288973803	794
0	2564	84.780745680261	795
0	2569	84.858660181108	796
0	2572	84.97089088227	797
0	2575	85.106478300743	798
0	2576	85.279695872875	799
0	2579	85.329947693305	800
0	2584	85.499761404781	801
0	2589	85.633222878707	802
0	2591	85.656678641994	803
0	2593	85.686043209621	804
0	2601	85.845611503652	805
0	2605	85.977750158398	806
0	2609	86.117124311588	807
0	2613	86.164777255025	808
0	2615	86.216371073943	809
0	2620	86.294899100432	810
0	2621	86.419920715712	811
0	2624	86.459117531999	812
0	2628	86.493701561952	813
0	2634	86.555221255873	814
0	2638	86.580913512387	815
0	2645	86.775820801022	816
0	2646	86.946045530705	817
0	2649	87.056380625964	818
0	2650	87.077058972477	819
0	2653	87.103660790425	820
0	2658	87.293850300757	821
0	2661	87.453201851223	822
0	2662	87.475788507415	823
0	2671	87.596875396669	824
0	2672	87.675475604199	825
0	2675	87.808309674503	826
0	2680	87.937455790758	827
0	2682	87.957946434378	828
0	2684	88.09898331456	829
0	2685	88.279791839578	830
0	2687	88.347116380195	831
0	2690	88.393074230569	832
0	2695	88.426159572993	833
0	2698	88.531492813058	834
0	2702	88.668732684553	835
0	2705	88.831250452306	836
0	2706	88.89654760153	837
0	2709	89.068637101452	838
0	2713	89.133248438397	839
0	2714	89.19236409055	840
0	2715	89.323320589207	841
0	2716	89.463407705994	842
0	2718	89.581889268204	843
0	2723	89.671668347814	844
0	2728	89.810880538993	845
0	2731	89.838067621029	846
0	2737	90.026437204738	847
0	2738	90.073766799731	848
0	2740	90.124878278411	849
0	2745	90.309974190499	850
0	2750	90.380363735628	851
0	2755	90.4788509166	852
0	2758	90.530303524674	853
0	2760	90.553821390255	854
0	2764	90.741729439437	855
0	2768	90.916302064462	856
0	2771	91.066408100513	857
0	2773	91.195162462893	858
0	2778	91.315045262902	859
0	2782	91.406799393528	860
0	2784	91.433847920891	861
0	2786	91.617705032305	862
0	2789	91.700377033612	863
0	2793	91.870955906395	864
0	2798	91.978572253036	865
0	2799	92.109152782227	866
0	2802	92.16543667706	867
0	2808	92.322903307092	868
0	2813	92.449018018036	869
0	2818	92.570703843608	870
0	2823	92.637159866555	871
0	2825	92.670374384748	872
0	2833	92.786536029514	873
0	2834	92.800864390672	874
0	2841	92.953826033272	875
0	2846	93.054985378444	876
0	2847	93.093187116677	877
0	2848	93.164181706218	878
0	2850	93.296653208152	879
0	2854	93.353678690488	880
0	2858	93.407459106883	881
0	2862	93.522499636456	882
0	2867	93.718296438917	883
0	2868	93.916704033032	884
0	2873	94.067266231678	885
0	2874	94.110560901049	886
0	2877	94.205269877816	887
0	2880	94.403396185384	888
0	2881	94.42067032101	889
0	2886	94.616134873493	890
0	2889	94.713955573672	891
0	2890	94.758983457607	892
0	2895	94.84745459119	893
0	2896	94.859433135711	894
0	2905	94.97062894416	895
0	2906	94.994417681952	896
0	2910	95.07050582926	897
0	2911	95.21807686707	898
0	2913	95.251149856083	899
0	2916	95.278000961813	900
0	2917	95.295025279953	901
0	2921	95.31981300744	902
0	2927	95.380991616515	903
0	2931	95.528283722159	904
0	2936	95.695680189797	905
0	2941	95.815583946678	906
0	2944	95.871782446102	907
0	2949	96.003411342582	908
0	2950	96.061275136914	909
0	2955	96.200572151198	910
0	2956	96.230235692583	911
0	2965	96.399200555011	912
0	2968	96.450207368994	913
0	2972	96.628754234595	914
0	2973	96.781755945691	915
0	2974	96.929587941176	916
0	2979	97.049312898202	917
0	2984	97.237042811759	918
0	2987	97.336397812859	919
0	2992	97.445020783803	920
0	2995	97.636368080581	921
0	2996	97.679179039137	922
0	2997	97.725714822109	923
0	2998	97.867542241642	924
0	3000	97.987863177865	925
0	3003	98.044074664142	926
0	3005	98.07252556427	927
0	3008	98.264842940044	928
0	3009	98.309692500389	929
0	3012	98.463116962758	930
0	3013	98.536775142015	931
0	3018	98.663850312263	932
0	3023	98.850950535368	933
0	3027	98.957231928571	934
0	3029	99.052346649556	935
0	3032	99.098563735028	936
0	3035	99.12057421504	937
0	3042	99.196780551166	938
0	3049	99.388152878279	939
0	3054	99.523735100445	940
0	3056	99.694109348305	941
0	3057	99.759723795123	942
0	3062	99.858610253806	943
0	3065	100.013845079997	944
0	3066	100.035012740399	945
0	3072	100.083869490269	946
0	3074	100.252371127223	947
0	3076	100.345900458309	948
0	3077	100.521875404075	949
0	3078	100.71797215264	950
0	3079	100.751660406638	951
0	3082	100.869856173538	952
0	3084	100.973782732827	953
0	3088	101.147702506024	954
0	3089	101.329429023585	955
0	3094	101.507830951349	956
0	3096	101.650174367565	957
0	3101	101.756630875834	958
0	3103	101.827101397058	959
0	3104	102.009507568772	960
0	3105	102.023032315206	961
0	3106	102.06098878192	962
0	3110	102.111690400052	963
0	3116	102.250235777372	964
0	3120	102.318359568033	965
0	3126	102.376661649563	966
0	3131	102.525600810507	967
0	3133	102.558018292272	968
0	3136	102.580665231212	969
0	3145	102.75383986722	970
0	3146	102.781885823524	971
0	3155	102.923564619457	972
0	3160	103.072193373644	973
0	3162	103.263865905034	974
0	3167	103.416468763501	975
0	3169	103.474612123087	976
0	3172	103.505657536677	977
0	3176	103.703864425296	978
0	3181	103.818235579285	979
0	3186	104.002096225389	980
0	3187	104.177954698499	981
0	3188	104.265366044623	982
0	3190	104.302753395425	983
0	3195	104.383190707612	984
0	3200	104.567363588203	985
0	3205	104.694539681336	986
0	3207	104.758409580878	987
0	3212	104.85301757871	988
0	3215	104.900350420229	989
0	3219	105.080161742671	990
0	3220	105.130456787656	991
0	3223	105.239137971814	992
0	3228	105.361471871176	993
0	3233	105.472385020732	994
0	3234	105.488388202794	995
0	3236	105.530931105849	996
0	3237	105.615507392918	997
0	3238	105.775357377254	998
0	3239	105.959058309735	999
0	3240	106.006003813951	1000
0	3241	106.021446858477	1001
0	3243	106.056407344334	1002
0	3245	106.215483829684	1003
0	3247	106.24082335955	1004
0	3252	106.315392502225	1005
0	3253	106.39876251678	1006
0	3256	106.505355948718	1007
0	3257	106.554619854966	1008
0	3261	106.607789981449	1009
0	3264	106.656361139016	1010
0	3268	106.818334729753	1011
0	3271	106.909240604914	1012
0	3272	107.078451892759	1013
0	3274	107.114431507846	1014
0	3280	107.299172150407	1015
0	3281	107.31360296906	1016
0	3289	107.442699983367	1017
0	3291	107.559483512026	1018
0	3296	107.754607942056	1019
0	3297	107.856865512843	1020
0	3300	107.956649146148	1021
0	3302	108.019406199872	1022
0	3307	108.156395160942	1023
0	3309	108.341819820611	1024
0	3311	108.360725760415	1025
0	3313	108.3789487584	1026
0	3315	108.473815620972	1027
0	3316	108.571222203995	1028
0	3318	108.657001991725	1029
0	3321	108.70229525526	1030
0	3326	108.896417903215	1031
0	3328	109.061554505766	1032
0	3333	109.142219618982	1033
0	3335	109.288374771408	1034
0	3340	109.456666281537	1035
0	3341	109.524771140976	1036
0	3343	109.537716842495	1037
0	3347	109.63415597478	1038
0	3352	109.825529426684	1039
0	3357	109.990613209497	1040
0	3360	110.060335470961	1041
0	3367	110.231723019186	1042
0	3372	110.302142320931	1043
0	3373	110.373523193366	1044
0	3374	110.3852947573	1045
0	3376	110.404901145069	1046
0	3383	110.59779559014	1047
0	3385	110.621987354533	1048
0	3393	110.784642358319	1049
0	3398	110.943887249317	1050
0	3403	111.087242519631	1051
0	3408	111.206699192977	1052
0	3410	111.357260659001	1053
0	3411	111.382318279761	1054
0	3416	111.513221501216	1055
0	3421	111.695591785262	1056
0	3423	111.798885309144	1057
0	3426	111.965802461614	1058
0	3427	112.010152583492	1059
0	3429	112.093461962104	1060
0	3434	112.276577378827	1061
0	3436	112.414134203127	1062
0	3438	112.60803084832	1063
0	3443	112.748604070426	1064
0	3447	112.827598457169	1065
0	3453	112.969312699675	1066
0	3454	113.110032581045	1067
0	3459	113.292433303632	1068
0	3460	113.418666951501	1069
0	3463	113.458571184625	1070
0	3468	113.623561675533	1071
0	3472	113.680245244669	1072
0	3478	113.834302573235	1073
0	3483	113.917658533832	1074
0	3485	113.936775710255	1075
0	3493	114.038859843386	1076
0	3494	114.14503871517	1077
0	3499	114.258349020921	1078
0	3500	114.419924337526	1079
0	3501	114.46378543775	1080
0	3505	114.614062621795	1081
0	3509	114.681961104007	1082
0	3511	114.713288481602	1083
0	3513	114.763900715798	1084
0	3515	114.889429456264	1085
0	3519	115.037247655653	1086
0	3521	115.087585699226	1087