version 3
run General-1-20231011-22:48:23-22434
attr configname General
attr datetime 20231011-22:48:23
attr datetimef 20231011-224823
attr experiment General
attr inifile omnetpp.ini
attr iterationvars ""
attr iterationvarsd ""
attr iterationvarsf ""
attr measurement ""
attr network Multihop
attr processid 22434
attr repetition 1
attr replication #1
attr resultdir results
attr runnumber 1
attr seedset 1
config network Multihop
config Multihop.node[*].transmissionTime "uniform(1s, 2s)"
config Multihop.node[*].delayTime "uniform(0.01s, 0.2s)"
config Multihop.node[*].lossProbability 0.4
config record-eventlog true
config sim-time-limit 240s
config repeat 5

vector 0 Multihop.node[0] txVector ETV
vector 1 Multihop.node[1] rxVector ETV
vector 2 Multihop.node[1] txVector ETV
vector 3 Multihop.node[2] rxVector ETV
vector 4 Multihop.node[2] txVector ETV
vector 5 Multihop.node[3] rxVector ETV
vector 6 Multihop.node[3] txVector ETV
vector 7 Multihop.node[4] rxVector ETV
vector 8 Multihop.node[4] txVector ETV
vector 9 Multihop.node[5] rxVector ETV
0	0	0	1
0	1	0.089234179703	2
0	3	2.021791540903	3
0	4	3.324124108653	4
0	6	4.560213084917	5
0	7	5.746473296198	6
0	8	7.092034021278	7
0	13	9.02757309389	8
0	15	10.257150313935	9
0	19	12.171112336336	10
0	23	13.949501571829	11
0	24	15.64182418876	12
0	27	17.506844434074	13
0	29	18.779894411449	14
0	30	20.658036915703	15
0	36	22.251102432493	16
0	37	23.393222565414	17
0	40	25.227848238894	18
0	43	27.216709326371	19
0	44	28.662843827042	20
0	46	29.766069839127	21
0	48	31.674665343599	22
0	49	33.578035514919	23
0	50	34.697525988683	24
0	51	36.222325371696	25
0	52	37.305948377006	26
0	55	38.517576488085	27
0	60	39.570939032478	28
0	66	40.673273462919	29
0	72	41.718619187945	30
0	76	42.856093890616	31
0	77	44.394518585294	32
0	78	46.046817463474	33
0	82	47.39458332269	34
0	85	49.018255528878	35
0	86	50.781488586101	36
0	87	52.138020302984	37
0	90	53.566111493274	38
0	92	55.187807213166	39
0	93	56.97475868708	40
0	95	58.424670820241	41
0	97	59.832807624363	42
0	98	61.595727691543	43
0	100	63.169407179695	44
0	101	64.942146323039	45
0	104	66.268791225157	46
0	109	67.626060985611	47
0	112	69.316957904841	48
0	113	70.789432946244	49
0	114	72.532197773341	50
0	117	74.229015936028	51
0	119	75.982892129222	52
0	122	77.69441688608	53
0	123	79.090730174329	54
0	124	80.198095482658	55
0	125	81.70790576085	56
0	126	82.810040993267	57
0	128	84.348872059374	58
0	130	86.190902952687	59
0	131	87.424525480368	60
0	132	88.516081920708	61
0	135	90.48567766638	62
0	136	92.298672638019	63
0	142	93.531646911404	64
0	144	94.960029320908	65
0	145	96.019947015797	66
0	146	97.141290466883	67
0	148	99.057700340054	68
0	152	100.674029282876	69
0	153	101.74600356596	70
0	154	103.7132798956	71
0	155	105.281380358268	72
0	156	106.484673599363	73
0	157	107.736999346059	74
0	158	109.480825203354	75
0	159	110.676254683523	76
0	163	112.047388578881	77
0	164	113.541158292093	78
0	165	115.161114004091	79
0	167	117.054135215818	80
0	169	118.705255781184	81
0	170	120.191600887687	82
0	173	121.954174025334	83
0	176	123.063510089065	84
0	180	124.279160364415	85
0	181	125.345495197108	86
0	184	126.558228891926	87
0	185	128.310984450277	88
0	186	129.377520932701	89
0	187	130.63783603476	90
0	188	132.44259060023	91
0	189	133.636024881039	92
0	193	135.212609098876	93
0	194	136.278570187628	94
0	199	137.801306812443	95
0	205	139.529864209123	96
0	208	141.171430415824	97
0	210	142.775740905316	98
0	213	144.701922332286	99
0	214	146.311129320529	100
0	216	147.485084986197	101
0	217	148.563604955677	102
0	218	150.256790153798	103
0	222	151.278314961935	104
0	223	152.75039838755	105
0	224	153.855789637775	106
0	225	155.358865547576	107
0	226	157.244555408484	108
0	228	158.589292063261	109
0	231	160.171306242584	110
0	235	162.076698554563	111
0	237	163.362417408847	112
0	239	164.961527717183	113
0	240	166.914358841604	114
0	242	168.34803519526	115
0	244	169.663280001492	116
0	247	171.241137218312	117
0	249	172.853168399189	118
0	250	173.869041378958	119
0	252	175.548110216273	120
0	256	176.548512239357	121
0	258	178.153228340087	122
0	261	179.727939847972	123
0	262	181.427823878241	124
0	264	183.177845642318	125
0	268	184.932927825137	126
0	269	186.197131129329	127
0	271	187.648005064226	128
0	272	188.88822269684	129
0	275	190.289702282402	130
0	277	191.719949559191	131
0	280	193.397750447619	132
0	282	194.741096687152	133
0	287	196.621094974105	134
0	288	197.919895198078	135
0	291	199.447609843102	136
0	293	201.180752374579	137
0	295	202.951636289128	138
0	301	204.417346164931	139
0	302	206.40016328159	140
0	303	207.58177613781	141
0	304	209.393634830948	142
0	308	210.466758142339	143
0	310	212.370637405079	144
0	313	214.217659687737	145
0	314	216.133965239508	146
0	316	217.601050554655	147
0	317	218.71194185747	148
0	321	220.192220040478	149
0	326	221.865367319549	150
0	327	222.967334578394	151
0	330	224.757708100251	152
0	331	226.379514327853	153
0	334	227.535731160662	154
0	336	228.680423067299	155
0	337	230.199774887528	156
0	339	231.915104470098	157
0	340	233.239466932484	158
0	341	235.112389311775	159
0	342	236.957098921177	160
0	343	238.495539513997	161
1	9	7.277419840323	1
1	16	10.494539140371	2
1	20	12.31875161816	3
1	25	15.918338126516	4
1	31	20.786722814619	5
1	38	23.652052315195	6
1	41	25.456413935721	7
1	53	37.590152030532	8
1	56	38.738610421613	9
1	61	39.724831962554	10
1	67	40.885093780554	11
1	73	41.93136894435	12
1	79	46.225457057928	13
1	83	47.635722194719	14
1	88	52.391050089526	15
1	102	65.081202989304	16
1	105	66.513509304405	17
1	110	67.894082577606	18
1	115	72.678669427795	19
1	120	76.102259935912	20
1	133	88.734394585699	21
1	137	92.463727038342	22
1	149	99.210585114402	23
1	160	110.896712880153	24
1	171	120.416803484985	25
1	174	122.25201109496	26
1	177	123.278190250569	27
1	182	125.525811195384	28
1	190	133.867522448563	29
1	195	136.528232721107	30
1	200	137.955835608836	31
1	206	139.641384724168	32
1	211	142.971621210566	33
1	219	150.369205560395	34
1	229	158.766663153688	35
1	232	160.285844220239	36
1	245	169.928149012376	37
1	253	175.767721969419	38
1	259	178.303031987449	39
1	265	183.294774885725	40
1	273	189.0026247556	41
1	278	191.909953762955	42
1	283	194.857168368784	43
1	289	198.132631910474	44
1	296	203.074372378781	45
1	305	209.669877544713	46
1	311	212.523394996263	47
1	318	218.858604776803	48
1	322	220.349346416723	49
1	328	223.175347410588	50
1	332	226.592876250649	51
2	9	7.277419840323	1
2	16	10.494539140371	2
2	20	12.31875161816	3
2	25	15.918338126516	4
2	31	20.786722814619	5
2	38	23.652052315195	6
2	41	25.456413935721	7
2	53	37.590152030532	8
2	56	38.738610421613	9
2	61	39.724831962554	10
2	67	40.885093780554	11
2	73	41.93136894435	12
2	79	46.225457057928	13
2	83	47.635722194719	14
2	88	52.391050089526	15
2	102	65.081202989304	16
2	105	66.513509304405	17
2	110	67.894082577606	18
2	115	72.678669427795	19
2	120	76.102259935912	20
2	133	88.734394585699	21
2	137	92.463727038342	22
2	149	99.210585114402	23
2	160	110.896712880153	24
2	171	120.416803484985	25
2	174	122.25201109496	26
2	177	123.278190250569	27
2	182	125.525811195384	28
2	190	133.867522448563	29
2	195	136.528232721107	30
2	200	137.955835608836	31
2	206	139.641384724168	32
2	211	142.971621210566	33
2	219	150.369205560395	34
2	229	158.766663153688	35
2	232	160.285844220239	36
2	245	169.928149012376	37
2	253	175.767721969419	38
2	259	178.303031987449	39
2	265	183.294774885725	40
2	273	189.0026247556	41
2	278	191.909953762955	42
2	283	194.857168368784	43
2	289	198.132631910474	44
2	296	203.074372378781	45
2	305	209.669877544713	46
2	311	212.523394996263	47
2	318	218.858604776803	48
2	322	220.349346416723	49
2	328	223.175347410588	50
2	332	226.592876250649	51
3	10	7.548218914785	1
3	17	10.691408054115	2
3	21	12.564786015221	3
3	32	21.024337092039	4
3	57	38.957692766893	5
3	62	39.913502599912	6
3	68	41.021687343401	7
3	74	42.067831449596	8
3	80	46.478111357417	9
3	106	66.796130982042	10
3	138	92.727077024686	11
3	150	99.327425007185	12
3	161	111.016216316202	13
3	178	123.562314554094	14
3	191	134.13705503872	15
3	196	136.778226898949	16
3	201	138.209539332987	17
3	220	150.659319900448	18
3	233	160.483221470268	19
3	254	176.063306206755	20
3	266	183.537405763027	21
3	284	195.138898339417	22
3	297	203.24948327132	23
3	306	209.905340605049	24
3	319	219.031928794831	25
3	323	220.469883687804	26
4	10	7.548218914785	1
4	17	10.691408054115	2
4	21	12.564786015221	3
4	32	21.024337092039	4
4	57	38.957692766893	5
4	62	39.913502599912	6
4	68	41.021687343401	7
4	74	42.067831449596	8
4	80	46.478111357417	9
4	106	66.796130982042	10
4	138	92.727077024686	11
4	150	99.327425007185	12
4	161	111.016216316202	13
4	178	123.562314554094	14
4	191	134.13705503872	15
4	196	136.778226898949	16
4	201	138.209539332987	17
4	220	150.659319900448	18
4	233	160.483221470268	19
4	254	176.063306206755	20
4	266	183.537405763027	21
4	284	195.138898339417	22
4	297	203.24948327132	23
4	306	209.905340605049	24
4	319	219.031928794831	25
4	323	220.469883687804	26
5	11	7.717740882253	1
5	33	21.21257678904	2
5	58	39.095571195612	3
5	63	40.155438629934	4
5	69	41.282244023454	5
5	107	67.024569404266	6
5	139	92.910770547339	7
5	197	136.919654060379	8
5	202	138.395085475607	9
5	285	195.37481510423	10
5	298	203.372443046735	11
5	324	220.609823817178	12
6	11	7.717740882253	1
6	33	21.21257678904	2
6	58	39.095571195612	3
6	63	40.155438629934	4
6	69	41.282244023454	5
6	107	67.024569404266	6
6	139	92.910770547339	7
6	197	136.919654060379	8
6	202	138.395085475607	9
6	285	195.37481510423	10
6	298	203.372443046735	11
6	324	220.609823817178	12
7	34	21.36011145881	1
7	64	40.344132690512	2
7	70	41.397906281873	3
7	140	93.184843499349	4
7	203	138.680873496122	5
7	299	203.554248640295	6
8	34	21.36011145881	1
8	64	40.344132690512	2
8	70	41.397906281873	3
8	140	93.184843499349	4
8	203	138.680873496122	5
8	299	203.554248640295	6
9	35	21.525141091129	1
9	65	40.46362384769	2
9	71	41.675700121486	3
9	141	93.436796610863	4
9	204	138.829540456489	5
9	300	203.679377595915	6

