version 3
run General-2-20231011-22:48:23-22434
attr configname General
attr datetime 20231011-22:48:23
attr datetimef 20231011-224823
attr experiment General
attr inifile omnetpp.ini
attr iterationvars ""
attr iterationvarsd ""
attr iterationvarsf ""
attr measurement ""
attr network Multihop
attr processid 22434
attr repetition 2
attr replication #2
attr resultdir results
attr runnumber 2
attr seedset 2
config network Multihop
config Multihop.node[*].transmissionTime "uniform(1s, 2s)"
config Multihop.node[*].delayTime "uniform(0.01s, 0.2s)"
config Multihop.node[*].lossProbability 0.4
config record-eventlog true
config sim-time-limit 240s
config repeat 5

vector 0 Multihop.node[0] txVector ETV
vector 1 Multihop.node[1] rxVector ETV
vector 2 Multihop.node[1] txVector ETV
vector 3 Multihop.node[2] rxVector ETV
vector 4 Multihop.node[2] txVector ETV
vector 5 Multihop.node[3] rxVector ETV
vector 6 Multihop.node[3] txVector ETV
vector 7 Multihop.node[4] rxVector ETV
vector 8 Multihop.node[4] txVector ETV
vector 9 Multihop.node[5] rxVector ETV
0	0	0	1
0	1	0.092839031499	2
0	2	1.118765259413	3
0	6	3.066495870259	4
0	7	4.271144506308	5
0	9	5.391095050164	6
0	13	7.023832780794	7
0	15	8.610629759748	8
0	20	9.86912784122	9
0	22	11.166146201101	10
0	23	12.594268532256	11
0	24	13.69079945378	12
0	25	14.817959425524	13
0	27	16.383724555858	14
0	28	17.490670240503	15
0	30	19.06797831065	16
0	31	20.535765795754	17
0	32	21.737509022718	18
0	36	23.391775204818	19
0	39	25.38262720175	20
0	40	27.083379545267	21
0	44	28.592905425019	22
0	45	30.160049552582	23
0	46	31.587595516834	24
0	52	32.941270890198	25
0	53	34.889361313562	26
0	54	36.71224594863	27
0	56	38.118520996783	28
0	57	39.865152409783	29
0	58	41.296690179751	30
0	59	43.18499392622	31
0	65	45.155574240972	32
0	68	46.581596768013	33
0	73	48.514225328824	34
0	75	50.087867827172	35
0	76	51.919884727121	36
0	78	52.925429148151	37
0	81	54.281182772031	38
0	82	55.863867661001	39
0	85	57.227193552319	40
0	88	59.141669124149	41
0	91	60.772511780279	42
0	92	62.085770303168	43
0	96	63.732784529001	44
0	97	65.149537965905	45
0	100	66.742034329118	46
0	103	68.710324901406	47
0	108	70.131463269022	48
0	109	72.04992190983	49
0	111	73.848142498423	50
0	117	75.743288237153	51
0	122	77.366851418762	52
0	124	79.066372041375	53
0	125	81.002620084694	54
0	126	82.466362692666	55
0	127	84.318651652912	56
0	128	85.531419023889	57
0	129	86.531542608066	58
0	131	87.826714913844	59
0	132	89.341574081004	60
0	133	91.221564432158	61
0	134	93.006356355053	62
0	135	94.536177530902	63
0	136	95.810015400423	64
0	139	97.359512219223	65
0	142	98.408380305645	66
0	144	99.569846872491	67
0	147	100.787249295059	68
0	149	102.58613480932	69
0	150	104.398916760943	70
0	151	105.944789464138	71
0	153	107.032351973252	72
0	154	108.96738770117	73
0	155	110.357973381197	74
0	158	111.410196105502	75
0	159	112.768436413276	76
0	160	113.787421541306	77
0	162	114.985448655457	78
0	164	116.417837755772	79
0	169	117.70826450155	80
0	170	119.581391841656	81
0	174	121.02596610437	82
0	175	122.761317498533	83
0	176	123.946907234628	84
0	178	125.654878409131	85
0	180	127.431981412944	86
0	182	129.388729010493	87
0	183	131.068756264652	88
0	186	132.817130263214	89
0	188	134.665814782278	90
0	191	136.381561869075	91
0	192	138.20901521949	92
0	194	139.311153169506	93
0	196	140.594411916583	94
0	197	141.662147155748	95
0	198	143.290328374383	96
0	203	144.860602582823	97
0	207	146.079423365667	98
0	213	147.955985234137	99
0	214	149.772004388524	100
0	216	151.190911700735	101
0	217	152.399414195232	102
0	218	154.266795736756	103
0	219	156.05912595314	104
0	224	157.339985943651	105
0	227	158.749185590092	106
0	228	159.856372990198	107
0	230	161.830372356362	108
0	235	163.777795697813	109
0	236	165.006405948446	110
0	241	166.156892413058	111
0	242	168.01201208054	112
0	243	169.392804661551	113
0	247	171.357201560419	114
0	248	173.049600803312	115
0	250	174.690717365146	116
0	251	176.480961163547	117
0	253	177.935039469525	118
0	254	179.773942067073	119
0	255	181.235680970148	120
0	258	182.626655232179	121
0	260	184.600206548366	122
0	261	185.799105643778	123
0	262	187.228694259672	124
0	264	188.946629076748	125
0	266	190.297352616926	126
0	267	191.472951691849	127
0	268	193.186273254473	128
0	273	194.246580857337	129
0	274	195.805531650335	130
0	279	197.023438971742	131
0	285	198.494133973048	132
0	287	200.445644124663	133
0	289	202.086582764769	134
0	290	203.294624381717	135
0	292	204.647838277528	136
0	293	206.079971378222	137
0	295	207.904861864885	138
0	297	209.368311122777	139
0	300	210.629031140609	140
0	302	211.644087275043	141
0	304	212.673236595485	142
0	305	214.352658008244	143
0	306	215.826550915158	144
0	307	217.400997257345	145
0	309	218.772268429883	146
0	311	219.898428537669	147
0	312	221.735172067089	148
0	314	223.638468223875	149
0	315	225.488898054715	150
0	318	227.156997389178	151
0	319	228.624334067124	152
0	320	230.58404006252	153
0	322	232.277373889479	154
0	325	233.320863589429	155
0	327	234.87772375929	156
0	328	236.743019102391	157
0	329	238.488557917083	158
0	330	239.853823950997	159
1	3	1.333201129842	1
1	10	5.551792232688	2
1	16	8.869843437777	3
1	33	21.969186300733	4
1	37	23.652566320821	5
1	41	27.376644250913	6
1	47	31.780577496662	7
1	60	43.473820653763	8
1	66	45.321248655122	9
1	69	46.700275771372	10
1	79	53.037902442371	11
1	83	55.978722340588	12
1	86	57.431637573403	13
1	89	59.356354926064	14
1	93	62.203711867471	15
1	98	65.381867932554	16
1	101	67.019548252628	17
1	104	68.985419061115	18
1	112	74.008260418427	19
1	118	75.992524509796	20
1	137	95.925028388198	21
1	140	97.497102187037	22
1	145	99.838785226244	23
1	156	110.640997929408	24
1	165	116.61024947968	25
1	171	119.78355205725	26
1	184	131.307412815822	27
1	189	134.915768884369	28
1	199	143.520967641227	29
1	204	145.153910907227	30
1	208	146.291868061854	31
1	220	156.235436265047	32
1	225	157.588815181614	33
1	231	162.107690548035	34
1	237	165.235411301233	35
1	244	169.536683528481	36
1	256	181.369579433651	37
1	269	193.464473353322	38
1	275	195.949950193924	39
1	280	197.321322769824	40
1	298	209.516291397167	41
1	316	225.642701721138	42
1	323	232.521282233921	43
2	3	1.333201129842	1
2	10	5.551792232688	2
2	16	8.869843437777	3
2	33	21.969186300733	4
2	37	23.652566320821	5
2	41	27.376644250913	6
2	47	31.780577496662	7
2	60	43.473820653763	8
2	66	45.321248655122	9
2	69	46.700275771372	10
2	79	53.037902442371	11
2	83	55.978722340588	12
2	86	57.431637573403	13
2	89	59.356354926064	14
2	93	62.203711867471	15
2	98	65.381867932554	16
2	101	67.019548252628	17
2	104	68.985419061115	18
2	112	74.008260418427	19
2	118	75.992524509796	20
2	137	95.925028388198	21
2	140	97.497102187037	22
2	145	99.838785226244	23
2	156	110.640997929408	24
2	165	116.61024947968	25
2	171	119.78355205725	26
2	184	131.307412815822	27
2	189	134.915768884369	28
2	199	143.520967641227	29
2	204	145.153910907227	30
2	208	146.291868061854	31
2	220	156.235436265047	32
2	225	157.588815181614	33
2	231	162.107690548035	34
2	237	165.235411301233	35
2	244	169.536683528481	36
2	256	181.369579433651	37
2	269	193.464473353322	38
2	275	195.949950193924	39
2	280	197.321322769824	40
2	298	209.516291397167	41
2	316	225.642701721138	42
2	323	232.521282233921	43
3	4	1.535303458122	1
3	11	5.817255309881	2
3	17	9.083622827903	3
3	34	22.229873351904	4
3	42	27.527925535677	5
3	48	31.979467570062	6
3	61	43.735869740369	7
3	70	46.945407047142	8
3	94	62.495702545113	9
3	105	69.209225255897	10
3	113	74.294796999564	11
3	119	76.136099820284	12
3	166	116.837147848074	13
3	172	119.98999937896	14
3	200	143.805143418246	15
3	205	145.264796976165	16
3	209	146.530609181363	17
3	221	156.369227793214	18
3	232	162.252514657033	19
3	238	165.3785554377	20
3	245	169.681393932164	21
3	270	193.598953881236	22
3	276	196.218593706175	23
3	281	197.500841217408	24
4	4	1.535303458122	1
4	11	5.817255309881	2
4	17	9.083622827903	3
4	34	22.229873351904	4
4	42	27.527925535677	5
4	48	31.979467570062	6
4	61	43.735869740369	7
4	70	46.945407047142	8
4	94	62.495702545113	9
4	105	69.209225255897	10
4	113	74.294796999564	11
4	119	76.136099820284	12
4	166	116.837147848074	13
4	172	119.98999937896	14
4	200	143.805143418246	15
4	205	145.264796976165	16
4	209	146.530609181363	17
4	221	156.369227793214	18
4	232	162.252514657033	19
4	238	165.3785554377	20
4	245	169.681393932164	21
4	270	193.598953881236	22
4	276	196.218593706175	23
4	281	197.500841217408	24
5	18	9.271011316078	1
5	49	32.141560488217	2
5	62	43.960214992878	3
5	71	47.153718891757	4
5	106	69.339474037305	5
5	114	74.590547343818	6
5	120	76.3584387179	7
5	167	117.128343241283	8
5	201	144.048573623892	9
5	210	146.800652459709	10
5	222	156.49333734679	11
5	233	162.550102579598	12
5	239	165.516803939646	13
5	271	193.807473637157	14
5	277	196.347722081079	15
5	282	197.795245290507	16
6	18	9.271011316078	1
6	49	32.141560488217	2
6	62	43.960214992878	3
6	71	47.153718891757	4
6	106	69.339474037305	5
6	114	74.590547343818	6
6	120	76.3584387179	7
6	167	117.128343241283	8
6	201	144.048573623892	9
6	210	146.800652459709	10
6	222	156.49333734679	11
6	233	162.550102579598	12
6	239	165.516803939646	13
6	271	193.807473637157	14
6	277	196.347722081079	15
6	282	197.795245290507	16
7	50	32.403218562109	1
7	63	44.215557366833	2
7	115	74.874913900957	3
7	211	147.086623103288	4
7	283	198.00639842264	5
8	50	32.403218562109	1
8	63	44.215557366833	2
8	115	74.874913900957	3
8	211	147.086623103288	4
8	283	198.00639842264	5
9	51	32.66790486132	1
9	64	44.357710201519	2
9	116	74.992516035616	3
9	212	147.375435120163	4
9	284	198.192929460873	5

