version 3
run General-3-20231011-22:48:23-22434
attr configname General
attr datetime 20231011-22:48:23
attr datetimef 20231011-224823
attr experiment General
attr inifile omnetpp.ini
attr iterationvars ""
attr iterationvarsd ""
attr iterationvarsf ""
attr measurement ""
attr network Multihop
attr processid 22434
attr repetition 3
attr replication #3
attr resultdir results
attr runnumber 3
attr seedset 3
config network Multihop
config Multihop.node[*].transmissionTime "uniform(1s, 2s)"
config Multihop.node[*].delayTime "uniform(0.01s, 0.2s)"
config Multihop.node[*].lossProbability 0.4
config record-eventlog true
config sim-time-limit 240s
config repeat 5

vector 0 Multihop.node[0] txVector ETV
vector 1 Multihop.node[1] rxVector ETV
vector 2 Multihop.node[1] txVector ETV
vector 3 Multihop.node[2] rxVector ETV
vector 4 Multihop.node[2] txVector ETV
vector 5 Multihop.node[3] rxVector ETV
vector 6 Multihop.node[3] txVector ETV
vector 7 Multihop.node[4] rxVector ETV
vector 8 Multihop.node[4] txVector ETV
vector 9 Multihop.node[5] rxVector ETV
0	0	0	1
0	1	0.114651601831	2
0	2	1.822799424012	3
0	7	2.944128003274	4
0	8	4.151370881894	5
0	9	5.202838089853	6
0	10	6.643647928327	7
0	14	7.789018075751	8
0	15	9.465272979183	9
0	17	11.378574431945	10
0	19	13.352222703003	11
0	21	14.904994651514	12
0	22	16.598132571044	13
0	24	17.873052678608	14
0	27	19.630717924169	15
0	28	20.852675808432	16
0	34	22.571097833641	17
0	40	23.949091879023	18
0	41	25.174146381743	19
0	42	26.580666298816	20
0	44	28.328823735543	21
0	49	29.532178264415	22
0	52	30.906302992558	23
0	55	31.970072794311	24
0	57	33.415973234993	25
0	58	35.123659859017	26
0	62	36.580992034242	27
0	64	38.070283289837	28
0	66	39.896411364503	29
0	68	41.039010710852	30
0	69	42.281686132379	31
0	71	43.601181167482	32
0	72	45.292658677163	33
0	77	46.31868494379	34
0	79	47.596007992817	35
0	80	48.747868985474	36
0	82	50.440519601876	37
0	84	51.556736192271	38
0	85	53.508837437328	39
0	89	54.838408795256	40
0	95	56.658189524036	41
0	99	58.31851542655	42
0	100	60.200423874265	43
0	103	61.396804452014	44
0	107	63.181741151332	45
0	110	64.271532018974	46
0	112	66.059150219269	47
0	116	67.514429577	48
0	117	69.124075291751	49
0	119	70.764251914879	50
0	120	72.76422737872	51
0	122	73.813336303763	52
0	123	75.089977850512	53
0	127	76.741100615895	54
0	129	78.697550127589	55
0	132	79.767682635532	56
0	133	81.62773609844	57
0	138	83.16849693384	58
0	141	85.06406726323	59
0	142	86.760817251009	60
0	146	88.051689696572	61
0	150	89.89310931445	62
0	154	91.032576441373	63
0	159	92.186316647874	64
0	162	93.345963806221	65
0	167	94.6484620977	66
0	168	96.482149981967	67
0	170	97.507677854811	68
0	174	98.870754134449	69
0	178	100.102215165113	70
0	182	101.895977436638	71
0	183	103.861270788664	72
0	185	105.71550143238	73
0	189	107.4356526661	74
0	190	108.491294212014	75
0	191	110.234031484768	76
0	192	111.538717912816	77
0	194	112.988119106114	78
0	198	114.504404858293	79
0	200	116.405175663371	80
0	201	118.28941709183	81
0	203	119.595544388125	82
0	204	120.672040668855	83
0	205	122.210833330945	84
0	207	123.336654370724	85
0	212	124.770188662064	86
0	214	126.168325573279	87
0	217	127.785779755403	88
0	218	129.009102733181	89
0	219	130.252080916501	90
0	220	131.731588227748	91
0	221	132.732333747977	92
0	222	133.762645105673	93
0	224	135.039413021952	94
0	225	136.718914829735	95
0	226	138.51411941492	96
0	229	139.936743832501	97
0	232	141.117484161472	98
0	233	142.714487402542	99
0	235	144.507810080732	100
0	237	146.268451224389	101
0	240	147.923585135332	102
0	245	149.10212396931	103
0	246	150.519390866003	104
0	248	151.619968578761	105
0	250	153.420964812703	106
0	251	154.715658305522	107
0	257	156.405934473343	108
0	259	158.263000904659	109
0	260	160.107276536601	110
0	264	161.149346056704	111
0	268	162.820916305373	112
0	269	164.012199596579	113
0	271	165.883689141909	114
0	275	167.104025472964	115
0	276	168.290976468318	116
0	277	169.965306843475	117
0	281	171.379725704046	118
0	285	172.797287612066	119
0	291	174.58611995362	120
0	294	175.642820091297	121
0	296	177.23529405271	122
0	298	178.783622069595	123
0	304	180.416582602853	124
0	309	181.500663279634	125
0	311	183.058030668492	126
0	316	184.629129418018	127
0	318	186.595859633372	128
0	319	187.733669526256	129
0	321	189.361695011459	130
0	327	190.526294559553	131
0	333	191.921355349324	132
0	336	193.671175796385	133
0	337	195.208610172696	134
0	338	197.204396481473	135
0	340	198.697247803291	136
0	342	200.272155857026	137
0	343	202.018826951352	138
0	344	203.592248231717	139
0	345	205.323953908248	140
0	346	206.874786507184	141
0	348	208.407665342404	142
0	350	210.125692894994	143
0	355	211.726491476954	144
0	357	213.582039678549	145
0	358	214.774786652378	146
0	359	216.500954649258	147
0	360	218.044932604614	148
0	361	219.579857941331	149
0	362	221.044394918797	150
0	364	222.826297886284	151
0	368	224.824035414807	152
0	369	226.744504834372	153
0	372	228.62858581062	154
0	373	229.956651553126	155
0	375	231.017465211298	156
0	376	232.03969709979	157
0	377	233.700044156132	158
0	378	234.870034173676	159
0	382	236.505691528632	160
0	385	238.245684598884	161
0	388	239.734948590476	162
1	3	1.988071325295	1
1	11	6.759324408719	2
1	25	18.086535991006	3
1	29	21.03639034728	4
1	35	22.756906115307	5
1	45	28.494264362491	6
1	50	29.694993991161	7
1	53	31.054564948274	8
1	59	35.37554164129	9
1	73	45.526249280895	10
1	86	53.748343675808	11
1	90	55.124486675342	12
1	96	56.915009873902	13
1	101	60.414046571459	14
1	104	61.545351205167	15
1	108	63.380923600683	16
1	113	66.337660863472	17
1	124	75.247808737523	18
1	130	78.91150497089	19
1	134	81.779231699793	20
1	139	83.367923470286	21
1	143	87.013014717744	22
1	147	88.220149604924	23
1	151	90.080230121421	24
1	155	91.302433658004	25
1	163	93.613257739036	26
1	171	97.658708253879	27
1	175	99.033820108672	28
1	179	100.371228470566	29
1	186	106.005721685522	30
1	195	113.283930064545	31
1	208	123.529562217208	32
1	215	126.330672183357	33
1	227	138.733970453809	34
1	230	140.055540111566	35
1	238	146.456412063721	36
1	241	148.061190227438	37
1	252	155.013399727845	38
1	261	160.294469201765	39
1	265	161.39526807992	40
1	272	166.00375439578	41
1	278	170.247894867321	42
1	282	171.571714166707	43
1	286	172.951326557435	44
1	292	174.79227615383	45
1	299	178.907476316612	46
1	305	180.639994479161	47
1	312	183.333056048562	48
1	322	189.512856092461	49
1	328	190.803957046588	50
1	334	192.2094984007	51
1	351	210.34084513365	52
1	365	223.126096189773	53
1	370	226.935092811454	54
1	379	235.094661223591	55
1	383	236.671177605563	56
1	386	238.384652618437	57
2	3	1.988071325295	1
2	11	6.759324408719	2
2	25	18.086535991006	3
2	29	21.03639034728	4
2	35	22.756906115307	5
2	45	28.494264362491	6
2	50	29.694993991161	7
2	53	31.054564948274	8
2	59	35.37554164129	9
2	73	45.526249280895	10
2	86	53.748343675808	11
2	90	55.124486675342	12
2	96	56.915009873902	13
2	101	60.414046571459	14
2	104	61.545351205167	15
2	108	63.380923600683	16
2	113	66.337660863472	17
2	124	75.247808737523	18
2	130	78.91150497089	19
2	134	81.779231699793	20
2	139	83.367923470286	21
2	143	87.013014717744	22
2	147	88.220149604924	23
2	151	90.080230121421	24
2	155	91.302433658004	25
2	163	93.613257739036	26
2	171	97.658708253879	27
2	175	99.033820108672	28
2	179	100.371228470566	29
2	186	106.005721685522	30
2	195	113.283930064545	31
2	208	123.529562217208	32
2	215	126.330672183357	33
2	227	138.733970453809	34
2	230	140.055540111566	35
2	238	146.456412063721	36
2	241	148.061190227438	37
2	252	155.013399727845	38
2	261	160.294469201765	39
2	265	161.39526807992	40
2	272	166.00375439578	41
2	278	170.247894867321	42
2	282	171.571714166707	43
2	286	172.951326557435	44
2	292	174.79227615383	45
2	299	178.907476316612	46
2	305	180.639994479161	47
2	312	183.333056048562	48
2	322	189.512856092461	49
2	328	190.803957046588	50
2	334	192.2094984007	51
2	351	210.34084513365	52
2	365	223.126096189773	53
2	370	226.935092811454	54
2	379	235.094661223591	55
2	383	236.671177605563	56
2	386	238.384652618437	57
3	4	2.206240477173	1
3	12	6.955427145633	2
3	30	21.150307102664	3
3	36	22.884427347469	4
3	46	28.72845422446	5
3	60	35.639130465557	6
3	74	45.732308351879	7
3	87	53.927057293144	8
3	91	55.343030776871	9
3	97	57.198665173698	10
3	105	61.840049893713	11
3	114	66.489078159633	12
3	125	75.448814614214	13
3	135	82.048349561118	14
3	144	87.263820373937	15
3	148	88.468308498628	16
3	152	90.249855752705	17
3	156	91.579657367907	18
3	164	93.74338286675	19
3	172	97.920719146036	20
3	176	99.228101767673	21
3	180	100.553604956098	22
3	187	106.193639039119	23
3	196	113.463941314922	24
3	209	123.756736221697	25
3	242	148.317325628812	26
3	253	155.146989668768	27
3	262	160.569190402967	28
3	266	161.592738095291	29
3	273	166.161621152985	30
3	279	170.497606462094	31
3	283	171.736906296049	32
3	287	173.231517067645	33
3	300	179.167802558884	34
3	306	180.869924780358	35
3	313	183.477066133897	36
3	323	189.69198294985	37
3	329	191.055433221072	38
3	352	210.457620182633	39
3	366	223.404963036523	40
3	380	235.285478569668	41
4	4	2.206240477173	1
4	12	6.955427145633	2
4	30	21.150307102664	3
4	36	22.884427347469	4
4	46	28.72845422446	5
4	60	35.639130465557	6
4	74	45.732308351879	7
4	87	53.927057293144	8
4	91	55.343030776871	9
4	97	57.198665173698	10
4	105	61.840049893713	11
4	114	66.489078159633	12
4	125	75.448814614214	13
4	135	82.048349561118	14
4	144	87.263820373937	15
4	148	88.468308498628	16
4	152	90.249855752705	17
4	156	91.579657367907	18
4	164	93.74338286675	19
4	172	97.920719146036	20
4	176	99.228101767673	21
4	180	100.553604956098	22
4	187	106.193639039119	23
4	196	113.463941314922	24
4	209	123.756736221697	25
4	242	148.317325628812	26
4	253	155.146989668768	27
4	262	160.569190402967	28
4	266	161.592738095291	29
4	273	166.161621152985	30
4	279	170.497606462094	31
4	283	171.736906296049	32
4	287	173.231517067645	33
4	300	179.167802558884	34
4	306	180.869924780358	35
4	313	183.477066133897	36
4	323	189.69198294985	37
4	329	191.055433221072	38
4	352	210.457620182633	39
4	366	223.404963036523	40
4	380	235.285478569668	41
5	5	2.39928224579	1
5	31	21.287423395279	2
5	37	23.118575418144	3
5	47	28.964364615001	4
5	75	46.016734056137	5
5	92	55.620441817495	6
5	136	82.190655933783	7
5	157	91.841460587908	8
5	165	93.907780651138	9
5	210	124.052760900126	10
5	243	148.432080432491	11
5	254	155.358372706412	12
5	288	173.38905296624	13
5	301	179.28606871666	14
5	307	181.089550010424	15
5	314	183.719924102388	16
5	324	189.850821043289	17
5	330	191.270457099661	18
5	353	210.646207790642	19
6	5	2.39928224579	1
6	31	21.287423395279	2
6	37	23.118575418144	3
6	47	28.964364615001	4
6	75	46.016734056137	5
6	92	55.620441817495	6
6	136	82.190655933783	7
6	157	91.841460587908	8
6	165	93.907780651138	9
6	210	124.052760900126	10
6	243	148.432080432491	11
6	254	155.358372706412	12
6	288	173.38905296624	13
6	301	179.28606871666	14
6	307	181.089550010424	15
6	314	183.719924102388	16
6	324	189.850821043289	17
6	330	191.270457099661	18
6	353	210.646207790642	19
7	32	21.459231568935	1
7	38	23.334565163271	2
7	93	55.882556484549	3
7	158	92.136069204001	4
7	255	155.628817632554	5
7	289	173.673818882045	6
7	302	179.44785007208	7
7	308	181.323172023098	8
7	325	190.076216352795	9
7	331	191.498983865523	10
8	32	21.459231568935	1
8	38	23.334565163271	2
8	93	55.882556484549	3
8	158	92.136069204001	4
8	255	155.628817632554	5
8	289	173.673818882045	6
8	302	179.44785007208	7
8	308	181.323172023098	8
8	325	190.076216352795	9
8	331	191.498983865523	10
9	33	21.722928116856	1
9	39	23.513262468264	2
9	94	56.059042276705	3
9	160	92.315932770743	4
9	256	155.856113111537	5
9	290	173.947713848131	6
9	303	179.677330080908	7
9	310	181.536376119146	8
9	326	190.367860752469	9
9	332	191.660358345519	10

