version 3
run General-4-20231011-22:48:23-22434
attr configname General
attr datetime 20231011-22:48:23
attr datetimef 20231011-224823
attr experiment General
attr inifile omnetpp.ini
attr iterationvars ""
attr iterationvarsd ""
attr iterationvarsf ""
attr measurement ""
attr network Multihop
attr processid 22434
attr repetition 4
attr replication #4
attr resultdir results
attr runnumber 4
attr seedset 4
config network Multihop
config Multihop.node[*].transmissionTime "uniform(1s, 2s)"
config Multihop.node[*].delayTime "uniform(0.01s, 0.2s)"
config Multihop.node[*].lossProbability 0.4
config record-eventlog true
config sim-time-limit 240s
config repeat 5

vector 0 Multihop.node[0] txVector ETV
vector 1 Multihop.node[1] rxVector ETV
vector 2 Multihop.node[1] txVector ETV
vector 3 Multihop.node[2] rxVector ETV
vector 4 Multihop.node[2] txVector ETV
vector 5 Multihop.node[3] rxVector ETV
vector 6 Multihop.node[3] txVector ETV
vector 7 Multihop.node[4] rxVector ETV
vector 8 Multihop.node[4] txVector ETV
vector 9 Multihop.node[5] rxVector ETV
0	0	0	1
0	1	0.193735669288	2
0	6	1.366430994277	3
0	7	3.34270544901	4
0	8	4.348935705996	5
0	12	6.252114232317	6
0	15	7.613610573732	7
0	16	9.210944516505	8
0	18	10.823469859701	9
0	19	11.867629913301	10
0	25	13.678692017835	11
0	26	15.120040551214	12
0	27	16.185750089972	13
0	33	17.353722273758	14
0	35	18.614694352648	15
0	36	19.772917760224	16
0	37	21.318120414079	17
0	38	22.842524498156	18
0	39	24.480134746912	19
0	40	25.881630189405	20
0	41	27.531435302613	21
0	42	28.928335306156	22
0	45	30.151367826774	23
0	49	31.503041538331	24
0	50	33.057782402882	25
0	51	34.682713252879	26
0	52	36.578214414572	27
0	55	37.814355736985	28
0	56	39.31214985779	29
0	57	40.494595258883	30
0	63	42.441669285684	31
0	65	43.77284379086	32
0	70	45.618287440776	33
0	72	46.863741151211	34
0	75	48.7583924445	35
0	78	49.823460252411	36
0	79	51.415333898193	37
0	81	52.77898424786	38
0	84	53.827518387618	39
0	87	55.342172082434	40
0	93	56.82990971805	41
0	94	57.978636559019	42
0	97	59.90604516949	43
0	98	61.095070923366	44
0	100	62.415686570261	45
0	103	63.961063484349	46
0	104	65.373535697269	47
0	105	66.792569737802	48
0	106	68.694991596662	49
0	107	70.674607859845	50
0	108	72.29817669854	51
0	113	74.235311204022	52
0	114	75.294191295201	53
0	116	76.439653622605	54
0	117	78.199183151977	55
0	121	79.954542545289	56
0	122	81.897128400779	57
0	123	83.362618077467	58
0	128	84.37304474941	59
0	131	85.956588281007	60
0	136	86.973305942412	61
0	137	88.922974886061	62
0	139	90.557544380348	63
0	142	92.488958647862	64
0	145	93.89859413697	65
0	149	95.388283274524	66
0	150	96.797874663645	67
0	153	98.363219024302	68
0	154	99.497971630111	69
0	157	100.777203570507	70
0	158	102.606621518885	71
0	161	104.394280168847	72
0	162	105.838820829908	73
0	165	107.133453388386	74
0	166	108.456028368477	75
0	171	110.333106272308	76
0	177	112.02289156631	77
0	179	113.174777168933	78
0	180	115.164894089022	79
0	181	117.048936475919	80
0	182	118.068878835685	81
0	183	119.171674076154	82
0	184	120.265754718718	83
0	185	121.531552044826	84
0	186	122.726499732502	85
0	189	124.67232802828	86
0	191	126.284140380948	87
0	196	128.018659436294	88
0	197	129.634021451148	89
0	199	131.371473428012	90
0	200	133.318910561186	91
0	204	135.179566426352	92
0	205	136.464811019982	93
0	210	137.804035925223	94
0	214	139.03875297416	95
0	217	140.987078855429	96
0	219	142.044284775769	97
0	222	143.644082265356	98
0	225	145.154988388214	99
0	227	146.891488657947	100
0	231	148.830382632007	101
0	232	149.94225694836	102
0	238	151.808381134093	103
0	240	152.870948039841	104
0	241	154.254528049294	105
0	247	155.60425914699	106
0	248	156.895099000221	107
0	249	158.640926564259	108
0	250	160.592595156429	109
0	252	161.697110397655	110
0	254	163.572172744579	111
0	257	164.58970641243	112
0	258	166.162990016543	113
0	259	167.564689105057	114
0	260	169.362783148332	115
0	262	170.400528329803	116
0	268	172.010634726525	117
0	272	173.825801116095	118
0	275	174.894770550222	119
0	278	175.898643187859	120
0	279	177.26262050905	121
0	280	178.839984205232	122
0	286	180.797743957403	123
0	287	181.830803424965	124
0	292	183.258958405496	125
0	296	184.38217503825	126
0	297	186.343778222713	127
0	299	187.818742143137	128
0	301	189.390566836724	129
0	302	191.240631972121	130
0	303	192.732947899641	131
0	306	193.790673000186	132
0	307	195.436121347507	133
0	310	197.384179154558	134
0	311	198.738031221235	135
0	313	200.30926542511	136
0	314	201.848713618152	137
0	317	203.172465575773	138
0	320	204.687373808033	139
0	323	206.451582647308	140
0	326	207.701724554093	141
0	327	208.858818021517	142
0	329	210.797646931985	143
0	330	212.542946140196	144
0	331	214.201022854687	145
0	333	216.14861642095	146
0	339	218.057125901717	147
0	340	219.902664996132	148
0	342	221.311746067282	149
0	346	222.600163784724	150
0	347	223.887442069508	151
0	348	225.172753005668	152
0	349	226.869804444637	153
0	350	228.824870382117	154
0	351	230.375017809596	155
0	354	231.375798704017	156
0	357	233.341328013836	157
0	359	234.470037508904	158
0	363	235.761581264584	159
0	369	237.361113484165	160
0	372	238.863668004198	161
1	2	0.407709797404	1
1	9	4.507002354588	2
1	13	6.526082947011	3
1	20	12.159393976948	4
1	28	16.329163724624	5
1	43	29.156879368211	6
1	46	30.332727222706	7
1	53	36.757156596394	8
1	58	40.779088036306	9
1	66	44.043721022494	10
1	73	47.015052906103	11
1	76	48.880600206177	12
1	82	52.893091800042	13
1	85	54.095816612341	14
1	88	55.610087814647	15
1	95	58.15790166146	16
1	101	62.643283255684	17
1	109	72.423981680812	18
1	118	78.460123581955	19
1	124	83.617586870622	20
1	129	84.486079291846	21
1	132	86.191510362057	22
1	140	90.68641665489	23
1	143	92.676406766366	24
1	146	94.184497770158	25
1	151	97.0528222038	26
1	155	99.748580129787	27
1	159	102.866100657734	28
1	163	106.018424696126	29
1	167	108.743733631083	30
1	172	110.46037927614	31
1	187	122.911385635799	32
1	192	126.451590177597	33
1	201	133.473632394537	34
1	206	136.626199194061	35
1	211	138.078071878488	36
1	215	139.174660460097	37
1	220	142.17149732437	38
1	223	143.809725809823	39
1	228	147.084361148855	40
1	233	150.156809241102	41
1	242	154.3726787698	42
1	255	163.802307947052	43
1	263	170.535964030911	44
1	269	172.231579501952	45
1	273	174.019514935356	46
1	276	175.072284510058	47
1	281	179.02777696694	48
1	288	181.980126399544	49
1	293	183.552389839026	50
1	304	193.029231031751	51
1	308	195.592129020316	52
1	315	202.026777864602	53
1	318	203.455141848014	54
1	321	204.970417504187	55
1	324	206.639846750891	56
1	334	216.340650101169	57
1	343	221.528499898471	58
1	352	230.533204189491	59
1	355	231.497508231248	60
1	360	234.67117819505	61
1	364	235.969763149492	62
1	370	237.544698879848	63
2	2	0.407709797404	1
2	9	4.507002354588	2
2	13	6.526082947011	3
2	20	12.159393976948	4
2	28	16.329163724624	5
2	43	29.156879368211	6
2	46	30.332727222706	7
2	53	36.757156596394	8
2	58	40.779088036306	9
2	66	44.043721022494	10
2	73	47.015052906103	11
2	76	48.880600206177	12
2	82	52.893091800042	13
2	85	54.095816612341	14
2	88	55.610087814647	15
2	95	58.15790166146	16
2	101	62.643283255684	17
2	109	72.423981680812	18
2	118	78.460123581955	19
2	124	83.617586870622	20
2	129	84.486079291846	21
2	132	86.191510362057	22
2	140	90.68641665489	23
2	143	92.676406766366	24
2	146	94.184497770158	25
2	151	97.0528222038	26
2	155	99.748580129787	27
2	159	102.866100657734	28
2	163	106.018424696126	29
2	167	108.743733631083	30
2	172	110.46037927614	31
2	187	122.911385635799	32
2	192	126.451590177597	33
2	201	133.473632394537	34
2	206	136.626199194061	35
2	211	138.078071878488	36
2	215	139.174660460097	37
2	220	142.17149732437	38
2	223	143.809725809823	39
2	228	147.084361148855	40
2	233	150.156809241102	41
2	242	154.3726787698	42
2	255	163.802307947052	43
2	263	170.535964030911	44
2	269	172.231579501952	45
2	273	174.019514935356	46
2	276	175.072284510058	47
2	281	179.02777696694	48
2	288	181.980126399544	49
2	293	183.552389839026	50
2	304	193.029231031751	51
2	308	195.592129020316	52
2	315	202.026777864602	53
2	318	203.455141848014	54
2	321	204.970417504187	55
2	324	206.639846750891	56
2	334	216.340650101169	57
2	343	221.528499898471	58
2	352	230.533204189491	59
2	355	231.497508231248	60
2	360	234.67117819505	61
2	364	235.969763149492	62
2	370	237.544698879848	63
3	3	0.68027777693	1
3	10	4.737265343496	2
3	21	12.273008677764	3
3	29	16.578505956053	4
3	47	30.531599789784	5
3	59	40.949065999018	6
3	67	44.317313740915	7
3	89	55.874015254936	8
3	110	72.629484814641	9
3	119	78.744450825605	10
3	125	83.771267281624	11
3	133	86.471881814515	12
3	147	94.459872277024	13
3	168	108.967117629733	14
3	173	110.656187207694	15
3	193	126.718306153217	16
3	202	133.615004836347	17
3	207	136.810916072247	18
3	212	138.295070992211	19
3	229	147.285896908835	20
3	234	150.376483333745	21
3	243	154.517547567448	22
3	264	170.689434875537	23
3	270	172.467978288934	24
3	282	179.18357244485	25
3	289	182.186229742015	26
3	294	183.834807658249	27
3	335	216.623291779654	28
3	344	221.781643826247	29
3	361	234.802901568263	30
3	365	236.087986441791	31
4	3	0.68027777693	1
4	10	4.737265343496	2
4	21	12.273008677764	3
4	29	16.578505956053	4
4	47	30.531599789784	5
4	59	40.949065999018	6
4	67	44.317313740915	7
4	89	55.874015254936	8
4	110	72.629484814641	9
4	119	78.744450825605	10
4	125	83.771267281624	11
4	133	86.471881814515	12
4	147	94.459872277024	13
4	168	108.967117629733	14
4	173	110.656187207694	15
4	193	126.718306153217	16
4	202	133.615004836347	17
4	207	136.810916072247	18
4	212	138.295070992211	19
4	229	147.285896908835	20
4	234	150.376483333745	21
4	243	154.517547567448	22
4	264	170.689434875537	23
4	270	172.467978288934	24
4	282	179.18357244485	25
4	289	182.186229742015	26
4	294	183.834807658249	27
4	335	216.623291779654	28
4	344	221.781643826247	29
4	361	234.802901568263	30
4	365	236.087986441791	31
5	4	0.905994540572	1
5	22	12.390566946552	2
5	30	16.766110288836	3
5	60	41.225557693422	4
5	68	44.540494483183	5
5	90	56.080961544953	6
5	111	72.88150882921	7
5	126	83.888270977419	8
5	134	86.677623001311	9
5	169	109.130415004838	10
5	174	110.85822399304	11
5	194	126.892117540748	12
5	208	136.972285513776	13
5	235	150.539579517756	14
5	244	154.792738491819	15
5	265	170.880378248799	16
5	283	179.386850315311	17
5	290	182.419929536769	18
5	336	216.872850423704	19
5	366	236.358082056489	20
6	4	0.905994540572	1
6	22	12.390566946552	2
6	30	16.766110288836	3
6	60	41.225557693422	4
6	68	44.540494483183	5
6	90	56.080961544953	6
6	111	72.88150882921	7
6	126	83.888270977419	8
6	134	86.677623001311	9
6	169	109.130415004838	10
6	174	110.85822399304	11
6	194	126.892117540748	12
6	208	136.972285513776	13
6	235	150.539579517756	14
6	244	154.792738491819	15
6	265	170.880378248799	16
6	283	179.386850315311	17
6	290	182.419929536769	18
6	336	216.872850423704	19
6	366	236.358082056489	20
7	23	12.680117677064	1
7	31	16.976412965425	2
7	61	41.468209158342	3
7	91	56.367038475475	4
7	175	111.045214570232	5
7	236	150.672909475077	6
7	245	154.969695995281	7
7	266	171.027146092018	8
7	284	179.637571936673	9
7	337	217.140802616111	10
7	367	236.616961094857	11
8	23	12.680117677064	1
8	31	16.976412965425	2
8	61	41.468209158342	3
8	91	56.367038475475	4
8	175	111.045214570232	5
8	236	150.672909475077	6
8	245	154.969695995281	7
8	266	171.027146092018	8
8	284	179.637571936673	9
8	337	217.140802616111	10
8	367	236.616961094857	11
9	24	12.87492402517	1
9	32	17.264551566565	2
9	62	41.64592004541	3
9	92	56.603754751777	4
9	176	111.336088950136	5
9	237	150.826961963369	6
9	246	155.111076732523	7
9	267	171.141198761741	8
9	285	179.843522014864	9
9	338	217.281583420445	10
9	368	236.827724519159	11

