version 3
run General-0-20231011-22:48:23-22434
attr configname General
attr datetime 20231011-22:48:23
attr datetimef 20231011-224823
attr experiment General
attr inifile omnetpp.ini
attr iterationvars ""
attr iterationvarsd ""
attr iterationvarsf ""
attr measurement ""
attr network Multihop
attr processid 22434
attr repetition 0
attr replication #0
attr resultdir results
attr runnumber 0
attr seedset 0
config network Multihop
config Multihop.node[*].transmissionTime "uniform(1s, 2s)"
config Multihop.node[*].delayTime "uniform(0.01s, 0.2s)"
config Multihop.node[*].lossProbability 0.4
config record-eventlog true
config sim-time-limit 240s
config repeat 5

vector 0 Multihop.node[0] txVector ETV
vector 1 Multihop.node[1] rxVector ETV
vector 2 Multihop.node[1] txVector ETV
vector 3 Multihop.node[2] rxVector ETV
vector 4 Multihop.node[2] txVector ETV
vector 5 Multihop.node[3] rxVector ETV
vector 6 Multihop.node[3] txVector ETV
vector 7 Multihop.node[4] rxVector ETV
vector 8 Multihop.node[4] txVector ETV
vector 9 Multihop.node[5] rxVector ETV
0	0	0	1
0	1	0.114274565438	2
0	7	1.958540309528	3
0	9	3.850313311285	4
0	14	5.233754832605	5
0	16	6.304790891316	6
0	17	7.952962767873	7
0	18	9.321204305235	8
0	20	11.099361062124	9
0	26	13.077979405019	10
0	28	14.659999196259	11
0	32	16.418614816693	12
0	33	18.192848503198	13
0	36	19.409398859906	14
0	37	21.027034360756	15
0	38	22.639130083219	16
0	39	24.256064081871	17
0	40	26.199812157153	18
0	42	27.649762146714	19
0	45	29.552110724923	20
0	48	31.205250757121	21
0	49	32.334177055469	22
0	51	33.942007722173	23
0	52	35.512204498125	24
0	53	36.950806011518	25
0	55	38.909755280779	26
0	57	40.544814157837	27
0	59	42.126664490045	28
0	61	43.601361995169	29
0	63	44.939369612678	30
0	65	46.256571357443	31
0	67	48.206142408845	32
0	69	49.219714050719	33
0	71	50.89337368177	34
0	77	52.771567150324	35
0	78	54.213278071794	36
0	79	56.192864802272	37
0	80	57.552309271253	38
0	81	59.033202807491	39
0	82	60.721863993748	40
0	83	62.602339886899	41
0	85	63.666487387919	42
0	91	65.233088836379	43
0	92	67.162385034214	44
0	93	68.480953989157	45
0	94	70.148364365406	46
0	97	71.795538503982	47
0	98	72.978729867449	48
0	99	74.565242800469	49
0	102	75.730183261054	50
0	103	77.407999800358	51
0	107	79.111737081155	52
0	111	80.507835359385	53
0	116	82.187890932269	54
0	118	83.5997110741	55
0	124	84.849507349149	56
0	126	86.805590988907	57
0	132	88.229446032855	58
0	133	89.519523642796	59
0	134	91.137539069706	60
0	136	93.015991260835	61
0	137	94.314273588664	62
0	138	95.88423850022	63
0	139	97.475111263178	64
0	145	98.508736356932	65
0	146	99.605996283542	66
0	148	101.49791964174	67
0	151	103.201808227298	68
0	156	104.916049525679	69
0	157	106.424364975958	70
0	162	107.548184958358	71
0	165	108.617351948588	72
0	167	110.339407553735	73
0	169	112.314929065832	74
0	174	113.326643147345	75
0	176	114.380981133391	76
0	177	115.560471401389	77
0	178	116.731457994159	78
0	184	117.955382676867	79
0	188	119.455408970664	80
0	193	120.72267150467	81
0	195	122.276913940746	82
0	196	123.489304442729	83
0	197	124.711747666194	84
0	198	125.930497034059	85
0	203	127.670047830629	86
0	204	128.726466165229	87
0	210	130.038262042056	88
0	216	131.782096584399	89
0	220	132.9989935654	90
0	221	134.228212888424	91
0	225	135.548230033206	92
0	227	137.177211882152	93
0	233	138.450753915428	94
0	237	140.239493336833	95
0	238	141.452805311724	96
0	240	142.924556887548	97
0	243	144.078251191021	98
0	245	145.293131927566	99
0	246	146.879916272897	100
0	248	148.62699574379	101
0	250	149.903889495951	102
0	251	151.620749175853	103
0	254	153.083899372329	104
0	255	154.228747134867	105
0	256	155.716803419475	106
0	257	157.072416154506	107
0	262	158.102869120265	108
0	266	159.834562878661	109
0	267	161.075391655859	110
0	269	162.138429948433	111
0	273	163.147670018558	112
0	275	164.329301224161	113
0	279	165.909748354765	114
0	280	167.871318512434	115
0	286	169.750188251329	116
0	289	171.043208535365	117
0	294	172.056445392152	118
0	298	173.060493497714	119
0	301	174.488717324636	120
0	303	175.609374321136	121
0	309	177.015494808625	122
0	311	178.348639964895	123
0	312	179.650470839185	124
0	315	180.882704980742	125
0	316	182.835575651914	126
0	319	183.84700310703	127
0	320	185.729863105413	128
0	321	186.980485825172	129
0	322	188.657897649637	130
0	327	189.903264862324	131
0	329	191.173592765887	132
0	330	192.765527929716	133
0	331	194.242005133607	134
0	332	195.729939705065	135
0	333	197.188454258793	136
0	339	198.871735592677	137
0	341	199.958112573323	138
0	345	201.16470717902	139
0	346	202.538520318528	140
0	347	204.126119955282	141
0	348	205.398941852224	142
0	350	206.532407062898	143
0	352	208.457570492827	144
0	354	209.948389109528	145
0	356	211.831098396635	146
0	360	213.245665874636	147
0	365	214.802095301055	148
0	367	216.127780067573	149
0	368	218.084185794533	150
0	369	219.271316687415	151
0	370	221.175300638961	152
0	375	222.26756080899	153
0	377	223.361020263821	154
0	382	225.051045283979	155
0	385	226.291065557698	156
0	387	228.250232160628	157
0	391	229.841216323735	158
0	394	231.41696748098	159
0	396	233.232491305635	160
0	397	234.326949221386	161
0	403	235.725383480151	162
0	406	237.032369532694	163
0	408	238.424143855532	164
1	2	0.360160544783	1
1	10	4.012118007243	2
1	21	11.374677639827	3
1	29	14.949486290796	4
1	34	18.38951706703	5
1	43	27.84279821772	6
1	46	29.788796400066	7
1	72	51.188900980162	8
1	86	63.883873272391	9
1	95	70.283405959187	10
1	100	74.679063235073	11
1	104	77.569301314401	12
1	108	79.331206974974	13
1	112	80.798857671141	14
1	119	83.877120682259	15
1	127	86.990616154416	16
1	140	97.694233061783	17
1	149	101.709953920026	18
1	152	103.3787474428	19
1	158	106.566066004368	20
1	163	107.66449721177	21
1	170	112.468770110737	22
1	179	116.929513679634	23
1	185	118.096674566602	24
1	189	119.742909630997	25
1	199	126.148716005112	26
1	205	128.929155329368	27
1	211	130.16103947191	28
1	217	131.981301050029	29
1	222	134.505714115192	30
1	228	137.346465324048	31
1	234	138.601700374202	32
1	241	143.073976202505	33
1	252	151.806000519571	34
1	258	157.3610982253	35
1	263	158.317785689842	36
1	270	162.425040518876	37
1	276	164.531570466921	38
1	281	168.025341821281	39
1	287	169.954834894734	40
1	290	171.30014047819	41
1	296	172.260949751989	42
1	299	173.19650454979	43
1	304	175.7379647735	44
1	313	179.907762597814	45
1	317	182.948225847568	46
1	323	188.921878227691	47
1	334	197.398126855813	48
1	342	200.200542049268	49
1	357	212.050831556945	50
1	361	213.437442338151	51
1	371	221.388623770141	52
1	378	223.552018380636	53
1	383	225.300010778903	54
1	388	228.455883371675	55
1	392	230.06933523696	56
1	398	234.557334720042	57
1	404	235.841711359158	58
1	409	238.569337997192	59
2	2	0.360160544783	1
2	10	4.012118007243	2
2	21	11.374677639827	3
2	29	14.949486290796	4
2	34	18.38951706703	5
2	43	27.84279821772	6
2	46	29.788796400066	7
2	72	51.188900980162	8
2	86	63.883873272391	9
2	95	70.283405959187	10
2	100	74.679063235073	11
2	104	77.569301314401	12
2	108	79.331206974974	13
2	112	80.798857671141	14
2	119	83.877120682259	15
2	127	86.990616154416	16
2	140	97.694233061783	17
2	149	101.709953920026	18
2	152	103.3787474428	19
2	158	106.566066004368	20
2	163	107.66449721177	21
2	170	112.468770110737	22
2	179	116.929513679634	23
2	185	118.096674566602	24
2	189	119.742909630997	25
2	199	126.148716005112	26
2	205	128.929155329368	27
2	211	130.16103947191	28
2	217	131.981301050029	29
2	222	134.505714115192	30
2	228	137.346465324048	31
2	234	138.601700374202	32
2	241	143.073976202505	33
2	252	151.806000519571	34
2	258	157.3610982253	35
2	263	158.317785689842	36
2	270	162.425040518876	37
2	276	164.531570466921	38
2	281	168.025341821281	39
2	287	169.954834894734	40
2	290	171.30014047819	41
2	296	172.260949751989	42
2	299	173.19650454979	43
2	304	175.7379647735	44
2	313	179.907762597814	45
2	317	182.948225847568	46
2	323	188.921878227691	47
2	334	197.398126855813	48
2	342	200.200542049268	49
2	357	212.050831556945	50
2	361	213.437442338151	51
2	371	221.388623770141	52
2	378	223.552018380636	53
2	383	225.300010778903	54
2	388	228.455883371675	55
2	392	230.06933523696	56
2	398	234.557334720042	57
2	404	235.841711359158	58
2	409	238.569337997192	59
3	3	0.633170212554	1
3	11	4.272545763594	2
3	22	11.636517766956	3
3	30	15.079608736017	4
3	73	51.395729610798	5
3	87	64.044297275701	6
3	105	77.734111836565	7
3	109	79.611454268941	8
3	113	80.994205240204	9
3	120	84.046632165363	10
3	128	87.215830865622	11
3	141	97.988335797321	12
3	153	103.678528373344	13
3	159	106.837187567555	14
3	171	112.647165941961	15
3	180	117.105130498559	16
3	186	118.216244877763	17
3	190	119.981936848447	18
3	200	126.351903177464	19
3	206	129.171460591657	20
3	212	130.361972773932	21
3	218	132.217285908706	22
3	223	134.688572254524	23
3	229	137.608094221813	24
3	235	138.755294321717	25
3	259	157.613027130453	26
3	264	158.436452470689	27
3	271	162.693317756866	28
3	277	164.791203476064	29
3	282	168.228872786852	30
3	291	171.476114845421	31
3	305	175.956114817248	32
3	324	189.111780725428	33
3	335	197.640295690605	34
3	343	200.471524359444	35
3	358	212.19391282722	36
3	362	213.57781708316	37
3	372	221.671627266722	38
3	379	223.794946571272	39
3	389	228.728850673946	40
3	399	234.679250180397	41
3	410	238.781230159306	42
4	3	0.633170212554	1
4	11	4.272545763594	2
4	22	11.636517766956	3
4	30	15.079608736017	4
4	73	51.395729610798	5
4	87	64.044297275701	6
4	105	77.734111836565	7
4	109	79.611454268941	8
4	113	80.994205240204	9
4	120	84.046632165363	10
4	128	87.215830865622	11
4	141	97.988335797321	12
4	153	103.678528373344	13
4	159	106.837187567555	14
4	171	112.647165941961	15
4	180	117.105130498559	16
4	186	118.216244877763	17
4	190	119.981936848447	18
4	200	126.351903177464	19
4	206	129.171460591657	20
4	212	130.361972773932	21
4	218	132.217285908706	22
4	223	134.688572254524	23
4	229	137.608094221813	24
4	235	138.755294321717	25
4	259	157.613027130453	26
4	264	158.436452470689	27
4	271	162.693317756866	28
4	277	164.791203476064	29
4	282	168.228872786852	30
4	291	171.476114845421	31
4	305	175.956114817248	32
4	324	189.111780725428	33
4	335	197.640295690605	34
4	343	200.471524359444	35
4	358	212.19391282722	36
4	362	213.57781708316	37
4	372	221.671627266722	38
4	379	223.794946571272	39
4	389	228.728850673946	40
4	399	234.679250180397	41
4	410	238.781230159306	42
5	4	0.904148042633	1
5	12	4.483035798685	2
5	23	11.834198845888	3
5	74	51.516315402453	4
5	88	64.253714405756	5
5	114	81.290133715746	6
5	121	84.340061246901	7
5	129	87.329477573741	8
5	142	98.159325273633	9
5	154	103.816923551231	10
5	160	107.100578170015	11
5	172	112.895864148689	12
5	181	117.391465944164	13
5	191	120.256150322519	14
5	201	126.50511195701	15
5	207	129.353233440735	16
5	213	130.600618273432	17
5	230	137.753365051021	18
5	260	157.74062040059	19
5	283	168.474829405815	20
5	292	171.614261608825	21
5	306	176.13139986215	22
5	325	189.327680794871	23
5	336	197.804164271815	24
5	363	213.715144662958	25
5	373	221.797391898216	26
5	380	223.967213446819	27
5	400	234.869816308242	28
6	4	0.904148042633	1
6	12	4.483035798685	2
6	23	11.834198845888	3
6	74	51.516315402453	4
6	88	64.253714405756	5
6	114	81.290133715746	6
6	121	84.340061246901	7
6	129	87.329477573741	8
6	142	98.159325273633	9
6	154	103.816923551231	10
6	160	107.100578170015	11
6	172	112.895864148689	12
6	181	117.391465944164	13
6	191	120.256150322519	14
6	201	126.50511195701	15
6	207	129.353233440735	16
6	213	130.600618273432	17
6	230	137.753365051021	18
6	260	157.74062040059	19
6	283	168.474829405815	20
6	292	171.614261608825	21
6	306	176.13139986215	22
6	325	189.327680794871	23
6	336	197.804164271815	24
6	363	213.715144662958	25
6	373	221.797391898216	26
6	380	223.967213446819	27
6	400	234.869816308242	28
7	5	1.132625144949	1
7	24	12.092499389262	2
7	75	51.712035653094	3
7	89	64.381563101894	4
7	122	84.561869612745	5
7	130	87.496776788824	6
7	143	98.311365183345	7
7	182	117.635304680039	8
7	192	120.508810729438	9
7	208	129.497358139455	10
7	214	130.825956835013	11
7	231	138.044395466085	12
7	284	168.677199721913	13
7	293	171.910809192337	14
7	307	176.391285689208	15
7	337	197.986350392575	16
7	374	222.059463805389	17
7	401	235.028966280717	18
8	5	1.132625144949	1
8	24	12.092499389262	2
8	75	51.712035653094	3
8	89	64.381563101894	4
8	122	84.561869612745	5
8	130	87.496776788824	6
8	143	98.311365183345	7
8	182	117.635304680039	8
8	192	120.508810729438	9
8	208	129.497358139455	10
8	214	130.825956835013	11
8	231	138.044395466085	12
8	284	168.677199721913	13
8	293	171.910809192337	14
8	307	176.391285689208	15
8	337	197.986350392575	16
8	374	222.059463805389	17
8	401	235.028966280717	18
9	6	1.315657669511	1
9	25	12.224971529776	2
9	76	51.825833310838	3
9	90	64.600992935976	4
9	123	84.797206611434	5
9	131	87.732209761115	6
9	144	98.448205324893	7
9	183	117.751354075585	8
9	194	120.802063784921	9
9	209	129.612047097922	10
9	215	131.071749252248	11
9	232	138.285018237914	12
9	285	168.921823870197	13
9	295	172.111699550581	14
9	308	176.579446448107	15
9	338	198.130769075513	16
9	376	222.336118689359	17
9	402	235.300283558799	18

