version 3
run General-0-20230930-15:14:12-17475
attr configname General
attr datetime 20230930-15:14:12
attr datetimef 20230930-151412
attr experiment General
attr inifile omnetpp.ini
attr iterationvars ""
attr iterationvarsd ""
attr iterationvarsf ""
attr measurement ""
attr network Multihop
attr processid 17475
attr repetition 0
attr replication #0
attr resultdir results
attr runnumber 0
attr seedset 0
config network Multihop
config Multihop.node[*].transmissionTime "uniform(1s, 2s)"
config Multihop.node[*].delayTime "uniform(0.01s, 0.2s)"
config Multihop.node[*].lossProbability "uniform(0, 0.2)"
config record-eventlog true
config sim-time-limit 240s

vector 0 Multihop.node[0] txVector ETV
0	0	0	1
0	1	0.122640477114	2
vector 1 Multihop.node[1] rxVector ETV
vector 2 Multihop.node[1] txVector ETV
vector 3 Multihop.node[2] rxVector ETV
vector 4 Multihop.node[2] txVector ETV
vector 5 Multihop.node[3] rxVector ETV
vector 6 Multihop.node[3] txVector ETV
vector 7 Multihop.node[4] rxVector ETV
vector 8 Multihop.node[4] txVector ETV
vector 9 Multihop.node[5] rxVector ETV
0	3	0.293618307193	3
0	5	0.386759877089	4
0	9	0.57985580226	5
0	12	0.664484912961	6
0	15	0.797637569507	7
0	17	0.834304217217	8
0	22	0.996144344346	9
0	27	1.116728104682	10
0	35	1.273832505118	11
0	42	1.45532621468	12
0	48	1.649589937714	13
0	51	1.721348910949	14
0	53	1.750737424244	15
0	61	1.949844341709	16
0	64	2.020112673214	17
0	71	2.186101387087	18
0	72	2.206687178742	19
0	77	2.357147259198	20
0	81	2.553268737989	21
0	83	2.694114363378	22
0	84	2.716302388572	23
0	87	2.833688273044	24
0	89	2.861536969182	25
0	94	3.048103246771	26
0	100	3.217966609982	27
0	101	3.228858751578	28
0	105	3.34708624841	29
0	110	3.466556142229	30
0	115	3.605766701077	31
0	119	3.691102791457	32
0	127	3.812911157301	33
0	128	3.82655786542	34
0	136	3.97261202679	35
0	141	4.090905359986	36
0	145	4.224804982115	37
0	148	4.317619316788	38
0	151	4.429653595074	39
0	155	4.614355291541	40
0	158	4.796238362951	41
0	160	4.837939391361	42
0	164	5.001329993821	43
0	168	5.198019235599	44
0	171	5.372631877539	45
0	172	5.384857553026	46
0	177	5.574241021968	47
0	179	5.618344172888	48
0	182	5.716399858363	49
0	188	5.860238594238	50
0	189	5.915438229071	51
0	192	5.976218110532	52
0	198	6.098301006304	53
0	203	6.216519977357	54
0	205	6.237545518225	55
0	209	6.306786734822	56
0	217	6.479163315605	57
0	222	6.575806094051	58
0	224	6.629357765426	59
0	227	6.712215904758	60
0	232	6.820961031282	61
0	240	7.011991446346	62
0	250	7.157192372444	63
0	255	7.295413368013	64
0	258	7.439263477742	65
0	259	7.476784552624	66
0	262	7.510502834194	67
0	268	7.662748922852	68
0	273	7.855516835719	69
0	275	7.877494111308	70
0	276	7.889249724632	71
0	280	8.048428777585	72
0	285	8.1687137324	73
0	293	8.359084308537	74
0	300	8.516016251362	75
0	304	8.669194476235	76
0	305	8.705205528311	77
0	308	8.771795474452	78
0	312	8.824415709011	79
0	319	8.984301536069	80
0	323	9.056110494814	81
0	324	9.068281711286	82
0	327	9.136152297039	83
0	332	9.274860543687	84
0	338	9.448365266266	85
0	341	9.551072834843	86
0	347	9.693241669635	87
0	349	9.714042803488	88
0	355	9.885025113664	89
0	358	9.96548714568	90
0	365	10.111371107957	91
0	368	10.154452378232	92
0	373	10.270173969252	93
0	374	10.304657477114	94
0	377	10.342590116453	95
0	383	10.455913247633	96
0	393	10.637681682654	97
0	398	10.798996062862	98
0	400	10.827515113301	99
0	405	10.946907833177	100
0	410	11.076398536675	101
0	415	11.224660840712	102
0	418	11.302435149776	103
0	423	11.41432731189	104
0	425	11.589530133183	105
0	427	11.661603301658	106
0	428	11.71582468677	107
0	431	11.885332151259	108
0	433	12.018800226353	109
0	434	12.034968632612	110
0	436	12.093074958903	111
0	440	12.196369659643	112
0	447	12.394535210804	113
0	450	12.463958336423	114
0	455	12.599834204829	115
0	459	12.704393020762	116
0	463	12.793215826099	117
0	471	12.943565531153	118
0	474	13.000955339338	119
0	479	13.103962110515	120
0	483	13.135587271958	121
0	486	13.216703546728	122
0	493	13.322450932526	123
0	503	13.49723591958	124
0	508	13.623468118925	125
0	510	13.652474208854	126
0	517	13.846355196645	127
0	522	13.961250067968	128
0	524	14.018448625431	129
0	528	14.081225623335	130
0	530	14.154592042209	131
0	533	14.196621559188	132
0	536	14.269309333328	133
0	541	14.376328824864	134
0	544	14.451251466447	135
0	548	14.489422508099	136
0	552	14.586864252582	137
0	556	14.613868215957	138
0	560	14.704714666805	139
0	561	14.73669828166	140
0	568	14.856354928543	141
0	575	15.051050604493	142
0	580	15.184284283318	143
0	584	15.26707383204	144
0	589	15.434170433422	145
0	592	15.521011171492	146
0	598	15.706257287708	147
0	602	15.891016021813	148
0	604	15.974951610865	149
0	610	16.157158915165	150
0	613	16.292771243071	151
0	618	16.475860101352	152
0	620	16.520888994839	153
0	625	16.658679633106	154
0	628	16.758102933378	155
0	631	16.801288026902	156
0	632	16.849357248203	157
0	640	17.035240656434	158
0	649	17.229634458661	159
0	655	17.429497276334	160
0	658	17.546669503538	161
0	662	17.620414156766	162
0	663	17.634535014181	163
0	666	17.726668495944	164
0	669	17.818991455688	165
0	672	17.939838251018	166
0	680	18.127646346079	167
0	681	18.15612536589	168
0	685	18.260702977677	169
0	688	18.302817804199	170
0	692	18.402723913852	171
0	695	18.493228121354	172
0	698	18.595132348906	173
0	706	18.732695210784	174
0	710	18.861513268506	175
0	714	18.973528638839	176
0	718	19.11917480694	177
0	722	19.230038230972	178
0	723	19.259664880446	179
0	728	19.439014607224	180
0	732	19.548609539704	181
0	739	19.705037693626	182
0	740	19.716688778196	183
0	741	19.731428276783	184
0	742	19.753996674256	185
0	745	19.806301681507	186
0	747	19.826772064602	187
0	750	19.923489880746	188
0	756	20.014609129213	189
0	762	20.091148508457	190
0	769	20.170411988078	191
0	772	20.233106639488	192
0	778	20.318259966923	193
0	784	20.443967803903	194
0	788	20.569600531608	195
0	793	20.756456088412	196
0	795	20.766718925841	197
0	798	20.823779079304	198
0	802	20.903026989247	199
0	809	21.101486151789	200
0	812	21.15261303138	201
0	818	21.299684751979	202
0	825	21.494932816061	203
0	828	21.551871407351	204
0	829	21.582318771458	205
0	832	21.674397590889	206
0	834	21.70672746323	207
0	835	21.71723610626	208
0	836	21.7732500385	209
0	841	21.82589875651	210
0	844	21.907606005454	211
0	849	22.004165931812	212
0	856	22.068994223911	213
0	863	22.220588486262	214
0	866	22.28081171073	215
0	872	22.45389586159	216
0	879	22.6262432666	217
0	884	22.779713440574	218
0	887	22.916748550717	219
0	890	23.09438244782	220
0	895	23.237943272848	221
0	898	23.379833263817	222
0	899	23.423464361252	223
0	903	23.530388681881	224
0	905	23.594127683741	225
0	910	23.718168128188	226
0	919	23.872709405347	227
0	926	24.056553850632	228
0	932	24.214597942794	229
0	938	24.414110806645	230
0	942	24.542132964453	231
0	944	24.628404275442	232
0	950	24.807241219371	233
0	951	24.854272409063	234
0	953	24.887095242569	235
0	959	25.03484412045	236
0	961	25.118269127086	237
0	964	25.235905287171	238
0	967	25.354971337494	239
0	971	25.457114811329	240
0	978	25.604973782817	241
0	982	25.753195124489	242
0	985	25.81097324436	243
0	987	25.883723982015	244
0	993	26.057784464444	245
0	997	26.163496549123	246
0	1000	26.214852488973	247
0	1006	26.358028821986	248
0	1013	26.537023924446	249
0	1015	26.5726394669	250
0	1019	26.721306718831	251
0	1022	26.794770130192	252
0	1028	26.99473375958	253
0	1031	27.117036181873	254
0	1036	27.264585047288	255
0	1039	27.357202108347	256
0	1041	27.369514629448	257
0	1043	27.423132443135	258
0	1047	27.476910667324	259
0	1049	27.530353511798	260
0	1057	27.715205146391	261
0	1058	27.731030745669	262
0	1059	27.764645635485	263
0	1065	27.885286384841	264
0	1069	28.028012292771	265
0	1073	28.149853702587	266
0	1075	28.203336606267	267
0	1082	28.374522206755	268
0	1085	28.432535194736	269
0	1087	28.62186685672	270
0	1089	28.71740950644	271
0	1091	28.777817138084	272
0	1092	28.796180246807	273
0	1096	28.866359072944	274
0	1099	28.914269683691	275
0	1110	29.10841880033	276
0	1115	29.209880093899	277
0	1119	29.319898476654	278
0	1122	29.339602817667	279
0	1125	29.47333605471	280
0	1129	29.656249851099	281
0	1130	29.68694156211	282
0	1136	29.841350909564	283
0	1145	30.035145091025	284
0	1152	30.194648497372	285
0	1156	30.338460043089	286
0	1162	30.525025460827	287
0	1168	30.719167334142	288
0	1170	30.768817166286	289
0	1174	30.900632423484	290
0	1175	30.917312835201	291
0	1177	30.966464906421	292
0	1185	31.138308537393	293
0	1188	31.218321820498	294
0	1191	31.306684194864	295
0	1196	31.370047498481	296
0	1197	31.393134785924	297
0	1206	31.582331849379	298
0	1211	31.727174951702	299
0	1215	31.859674476218	300
0	1217	31.929819015123	301
0	1218	31.940828872724	302
0	1225	32.093525008762	303
0	1226	32.119271480851	304
0	1229	32.212022472979	305
0	1231	32.268909230547	306
0	1235	32.371300926696	307
0	1242	32.495626502266	308
0	1243	32.543434780401	309
0	1255	32.714691870758	310
0	1264	32.851653333996	311
0	1270	32.985723288463	312
0	1274	33.069013711434	313
0	1277	33.232450834432	314
0	1278	33.261904924636	315
0	1280	33.367371009819	316
0	1281	33.40556300706	317
0	1282	33.42619948044	318
0	1288	33.622969316717	319
0	1289	33.682481085125	320
0	1295	33.836388331703	321
0	1297	33.872823656655	322
0	1301	34.001478176748	323
0	1302	34.027779151404	324
0	1307	34.157805672165	325
0	1314	34.279166181596	326
0	1317	34.364336577885	327
0	1320	34.396930796873	328
0	1328	34.546721413225	329
0	1337	34.74278581275	330
0	1344	34.902161628149	331
0	1348	35.002093606001	332
0	1354	35.119372776017	333
0	1356	35.195946309824	334
0	1363	35.385839672444	335
0	1364	35.424788923482	336
0	1370	35.60979024701	337
0	1373	35.770926986483	338
0	1375	35.828896894389	339
0	1380	35.969538860302	340
0	1381	36.031537593922	341
0	1388	36.174638033411	342
0	1389	36.199049551	343
0	1397	36.396015308939	344
0	1399	36.46758524958	345
0	1405	36.664249777235	346
0	1409	36.820206762871	347
0	1410	36.867517850883	348
0	1415	37.011123764692	349
0	1417	37.053219726172	350
0	1418	37.063355948716	351
0	1421	37.129575423976	352
0	1426	37.211472064371	353
0	1429	37.240027398141	354
0	1438	37.395797310476	355
0	1447	37.54389900556	356
0	1451	37.606015189934	357
0	1453	37.621751816821	358
0	1459	37.73267888948	359
0	1465	37.841933013114	360
0	1471	37.969756930137	361
0	1473	38.039339146378	362
0	1474	38.053582143492	363
0	1482	38.251752161877	364
0	1484	38.285073677206	365
0	1490	38.417476080724	366
0	1491	38.464190976844	367
0	1498	38.653380556941	368
0	1499	38.720143114862	369
0	1503	38.874596145307	370
0	1505	38.95995206737	371
0	1512	39.09483925951	372
0	1517	39.197879392685	373
0	1519	39.266555023371	374
0	1523	39.318693423153	375
0	1530	39.48746616961	376
0	1535	39.597517135069	377
0	1539	39.794369591319	378
0	1543	39.959685711307	379
0	1547	40.118941167801	380
0	1552	40.240022728742	381
0	1553	40.276706237123	382
0	1555	40.320323978407	383
0	1561	40.439600377761	384
0	1566	40.570415257612	385
0	1572	40.705409062461	386
0	1581	40.900297265086	387
0	1585	41.037068059417	388
0	1587	41.15175691268	389
0	1589	41.254057938811	390
0	1592	41.383324154914	391
0	1597	41.539991020063	392
0	1602	41.736052364701	393
0	1607	41.892455737347	394
0	1611	42.045542126182	395
0	1614	42.221877877131	396
0	1620	42.388312619644	397
0	1621	42.42461562029	398
0	1623	42.454908825629	399
0	1631	42.628795083323	400
0	1635	42.717541824777	401
0	1644	42.84793404276	402
0	1646	42.922553184968	403
0	1654	43.114372087721	404
0	1655	43.128113499993	405
0	1663	43.300399532324	406
0	1671	43.496411606778	407
0	1674	43.621861451831	408
0	1675	43.702741812134	409
0	1679	43.813310753654	410
0	1682	43.872933076317	411
0	1683	43.888242873249	412
0	1686	43.976451900301	413
0	1690	44.06643911506	414
0	1697	44.200112775126	415
0	1698	44.2834071131	416
0	1706	44.469929681995	417
0	1711	44.594238557301	418
0	1715	44.730181288831	419
0	1719	44.906562820219	420
0	1721	44.968572019357	421
0	1724	45.055805779202	422
0	1727	45.218150793659	423
0	1730	45.326947941208	424
0	1734	45.519447195701	425
0	1737	45.606547075527	426
0	1740	45.741403885484	427
0	1743	45.840764928232	428
0	1750	46.012302011799	429
0	1754	46.098391257164	430
0	1760	46.271796305825	431
0	1766	46.437230979063	432
0	1770	46.575030136119	433
0	1771	46.585932162657	434
0	1773	46.660360134876	435
0	1776	46.775883376551	436
0	1782	46.972639407575	437
0	1785	47.02968627381	438
0	1787	47.119530645084	439
0	1789	47.171099473835	440
0	1790	47.187359109012	441
0	1791	47.199290448016	442
0	1796	47.288321577796	443
0	1800	47.358622589683	444
0	1804	47.398042323851	445
0	1807	47.476418387404	446
0	1812	47.508375036121	447
0	1814	47.55005593703	448
0	1822	47.651551075409	449
0	1823	47.66915431942	450
0	1835	47.834654530505	451
0	1840	47.927595684619	452
0	1844	47.966936514969	453
0	1850	48.064162946539	454
0	1852	48.079840362738	455
0	1860	48.207984251399	456
0	1866	48.31844513872	457
0	1870	48.408948383607	458
0	1877	48.539206760059	459
0	1883	48.71625334619	460
0	1888	48.8860417366	461
0	1892	49.061168318518	462
0	1896	49.175088830394	463
0	1899	49.295482361016	464
0	1902	49.411870443977	465
0	1905	49.551733437711	466
0	1910	49.743366170632	467
0	1915	49.938559744909	468
0	1917	50.033757039904	469
0	1922	50.192728176154	470
0	1923	50.221972182488	471
0	1930	50.394384044483	472
0	1935	50.486118407084	473
0	1943	50.649936017955	474
0	1948	50.750492720564	475
0	1955	50.882877168569	476
0	1960	51.036372699574	477
0	1962	51.132744774576	478
0	1964	51.208762111684	479
0	1969	51.369132089016	480
0	1971	51.416028988738	481
0	1975	51.50150991742	482
0	1982	51.669959581701	483
0	1985	51.807691419497	484
0	1986	51.878197011803	485
0	1991	52.01472778016	486
0	1992	52.046150566838	487
0	1993	52.066678028358	488
0	2000	52.229049903224	489
0	2006	52.34343943387	490
0	2009	52.366423345352	491
0	2018	52.554361603348	492
0	2024	52.706773599323	493
0	2027	52.843374475736	494
0	2031	52.98574334498	495
0	2032	53.015484621685	496
0	2037	53.193733923123	497
0	2040	53.239469315689	498
0	2043	53.34399048758	499
0	2047	53.389162602609	500
0	2051	53.44573465054	501
0	2058	53.566293549839	502
0	2060	53.61942692615	503
0	2070	53.790630243841	504
0	2076	53.948782395466	505
0	2079	54.007481322865	506
0	2084	54.150123433609	507
0	2087	54.216737783457	508
0	2092	54.402454510076	509
0	2095	54.44536122454	510
0	2096	54.467313547741	511
0	2104	54.627657043649	512
0	2110	54.737056682158	513
0	2112	54.779295525124	514
0	2114	54.838743507857	515
0	2118	54.8996842679	516
0	2128	55.09254222013	517
0	2134	55.264562090206	518
0	2137	55.351519973701	519
0	2142	55.483812336742	520
0	2148	55.679795164244	521
0	2151	55.82857816081	522
0	2155	55.969067000376	523
0	2159	56.116194345834	524
0	2164	56.313793008457	525
0	2167	56.424936860734	526
0	2168	56.471286246669	527
0	2172	56.60820189129	528
0	2175	56.692686017395	529
0	2176	56.709750434688	530
0	2181	56.81825257356	531
0	2183	56.854174724158	532
0	2190	56.995760103038	533
0	2192	57.07201463552	534
0	2200	57.265974871831	535
0	2204	57.366671812672	536
0	2209	57.466615100012	537
0	2213	57.514940138066	538
0	2221	57.708661768879	539
0	2224	57.817296833073	540
0	2229	57.929114599336	541
0	2234	58.07370304982	542
0	2237	58.161417135755	543
0	2242	58.346165830351	544
0	2247	58.513196640005	545
0	2248	58.599547098607	546
0	2251	58.643006828583	547
0	2255	58.755518784441	548
0	2257	58.848345728619	549
0	2260	58.901053420999	550
0	2265	59.046570164007	551
0	2273	59.230122359285	552
0	2280	59.390039193651	553
0	2286	59.525774276648	554
0	2289	59.723386923776	555
0	2293	59.906018394384	556
0	2299	60.089992433219	557
0	2302	60.220233868089	558
0	2305	60.31994997948	559
0	2308	60.441109671537	560
0	2313	60.574647734848	561
0	2318	60.730282331294	562
0	2323	60.846490742207	563
0	2328	60.965861215944	564
0	2332	61.082614163306	565
0	2334	61.113666918118	566
0	2339	61.274043126568	567
0	2343	61.350272117591	568
0	2350	61.529468019994	569
0	2352	61.564380104277	570
0	2360	61.757254376636	571
0	2364	61.822928715494	572
0	2371	62.016659764539	573
0	2379	62.208949486321	574
0	2384	62.322082714484	575
0	2387	62.409274488742	576
0	2392	62.570310488873	577
0	2394	62.613804001327	578
0	2404	62.808237456259	579
0	2410	62.939473529061	580
0	2414	63.132356575549	581
0	2416	63.193820425236	582
0	2421	63.390050642894	583
0	2425	63.529692693037	584
0	2427	63.584916881587	585
0	2434	63.765429214655	586
0	2436	63.830784676982	587
0	2442	64.027170763334	588
0	2444	64.083519518645	589
0	2445	64.102207896707	590
0	2451	64.300394025622	591
0	2456	64.477483342392	592
0	2459	64.523632839152	593
0	2463	64.672867712111	594
0	2465	64.737469717309	595
0	2470	64.92414085517	596
0	2474	64.983421879938	597
0	2476	65.036455221836	598
0	2481	65.133347942208	599
0	2485	65.228821632462	600
0	2494	65.377404871106	601
0	2496	65.406557729876	602
0	2501	65.472379490878	603
0	2508	65.580559846529	604
0	2512	65.643745289813	605
0	2519	65.703929178717	606
0	2526	65.807973786192	607
0	2527	65.820428146315	608
0	2535	65.968708008698	609
0	2538	65.988903961003	610
0	2543	66.14569874791	611
0	2544	66.205522698029	612
0	2546	66.221225543234	613
0	2547	66.272110233356	614
0	2548	66.292499005499	615
0	2558	66.48533218853	616
0	2564	66.599542055445	617
0	2569	66.68730816475	618
0	2580	66.873820316523	619
0	2581	66.912987902227	620
0	2589	67.087828263135	621
0	2595	67.273494459987	622
0	2599	67.450241950972	623
0	2602	67.569574184563	624
0	2604	67.667087567466	625
0	2608	67.736599916128	626
0	2609	67.765380647796	627
0	2612	67.851933252366	628
0	2613	67.865170988454	629
0	2616	67.970316843651	630
0	2621	68.085472425758	631
0	2624	68.152581525128	632
0	2626	68.18559693428	633
0	2630	68.285213107432	634
0	2638	68.421026212853	635
0	2644	68.582674030383	636
0	2648	68.633786062389	637
0	2655	68.767166880591	638
0	2662	68.929359481992	639
0	2664	68.949714130981	640
0	2671	69.082515084763	641
0	2679	69.250962671459	642
0	2683	69.325265780479	643
0	2687	69.417572613369	644
0	2694	69.595499448112	645
0	2698	69.694938557124	646
0	2704	69.856312508338	647
0	2708	69.922232171534	648
0	2715	70.111641537651	649
0	2718	70.195635074888	650
0	2725	70.35895581928	651
0	2728	70.445052807989	652
0	2733	70.585482062748	653
0	2738	70.734252318555	654
0	2740	70.771982417678	655
0	2745	70.947995355815	656
0	2749	71.056913572241	657
0	2757	71.218250901572	658
0	2761	71.313424509779	659
0	2766	71.512632210249	660
0	2769	71.617373687335	661
0	2775	71.788194658634	662
0	2778	71.890286890914	663
0	2780	71.919127414998	664
0	2783	72.036667911986	665
0	2784	72.120727333453	666
0	2787	72.241742718549	667
0	2790	72.308880831561	668
0	2796	72.502044704965	669
0	2797	72.517728468584	670
0	2799	72.587115389704	671
0	2802	72.645347848732	672
0	2805	72.71574368939	673
0	2809	72.757417575374	674
0	2816	72.863989136973	675
0	2821	72.947870755484	676
0	2825	73.012656995905	677
0	2830	73.061294755372	678
0	2835	73.153827382752	679
0	2840	73.293550899809	680
0	2842	73.367691362105	681
0	2844	73.525123466862	682
0	2846	73.662210833508	683
0	2849	73.812507296971	684
0	2852	73.917404979754	685
0	2856	74.055350863093	686
0	2857	74.091708997912	687
0	2859	74.121423464993	688
0	2865	74.244083264834	689
0	2870	74.364880226523	690
0	2874	74.475954022192	691
0	2881	74.670274518056	692
0	2884	74.702467850049	693
0	2889	74.854982027209	694
0	2892	74.98775642246	695
0	2894	75.040830422279	696
0	2896	75.084935454412	697
0	2900	75.216633840194	698
0	2902	75.25213278011	699
0	2911	75.444828098622	700
0	2914	75.500118544238	701
0	2920	75.623527226044	702
0	2924	75.673562247347	703
0	2926	75.704939708881	704
0	2934	75.902888711655	705
0	2939	76.081888065547	706
0	2940	76.10052273668	707
0	2942	76.130300203905	708
0	2949	76.327500545991	709
0	2950	76.338460401626	710
0	2957	76.486280407201	711
0	2959	76.525313858386	712
0	2967	76.669084148131	713
0	2975	76.85437666854	714
0	2979	76.945669913519	715
0	2982	77.023376585298	716
0	2988	77.139722354428	717
0	2990	77.207058379582	718
0	2998	77.362496385844	719
0	3005	77.503720559808	720
0	3007	77.5487439498	721
0	3010	77.643802825666	722
0	3014	77.809043653632	723
0	3018	77.955713801506	724
0	3020	78.019450618283	725
0	3025	78.179697459548	726
0	3028	78.236045639103	727
0	3029	78.24743020756	728
0	3030	78.279611169154	729
0	3033	78.333411978963	730
0	3037	78.394039621488	731
0	3038	78.416911402521	732
0	3040	78.451222452064	733
0	3049	78.600964374297	734
0	3052	78.694180408171	735
0	3060	78.87393099863	736
0	3064	78.95635851103	737
0	3066	78.988484443693	738
0	3072	79.108877749498	739
0	3074	79.131854853045	740
0	3076	79.174141298828	741
0	3082	79.36783341191	742
0	3086	79.517670658997	743
0	3089	79.612124466165	744
0	3093	79.717846865866	745
0	3101	79.853302139638	746
0	3106	79.971104073043	747
0	3111	80.100008853176	748
0	3114	80.192278127801	749
0	3116	80.254380737932	750
0	3123	80.430776121023	751
0	3124	80.447999585055	752
0	3126	80.465252608578	753
0	3130	80.64720274979	754
0	3136	80.809000151986	755
0	3139	80.890416771045	756
0	3144	81.00332704337	757
0	3145	81.016109762577	758
0	3151	81.158849452977	759
0	3160	81.33700368207	760
0	3166	81.466631159448	761
0	3167	81.50818580685	762
0	3172	81.639019722236	763
0	3174	81.767375799292	764
0	3175	81.812348281946	765
0	3177	81.880861762965	766
0	3181	82.036826649653	767
0	3183	82.163065486043	768
0	3187	82.354733954852	769
0	3191	82.54948951541	770
0	3193	82.640785899814	771
0	3196	82.744450884443	772
0	3198	82.831700083819	773
0	3200	82.929881147333	774
0	3202	82.951251947196	775
0	3207	83.076968748882	776
0	3213	83.193358757604	777
0	3221	83.35772063702	778
0	3227	83.436167787303	779
0	3229	83.47939832267	780
0	3236	83.567552426608	781
0	3240	83.682162420556	782
0	3244	83.870333536185	783
0	3248	84.039475625503	784
0	3253	84.208891179016	785
0	3256	84.31409569268	786
0	3263	84.484473498013	787
0	3268	84.626079211339	788
0	3273	84.78755441063	789
0	3277	84.905937381421	790
0	3278	84.946668208695	791
0	3282	85.099142147796	792
0	3285	85.1435016346	793
0	3291	85.310305249991	794
0	3296	85.470693383498	795
0	3300	85.658091910688	796
0	3302	85.73259741761	797
0	3304	85.773538735343	798
0	3310	85.928287318104	799
0	3313	86.113293606133	800
0	3316	86.290880431141	801
0	3319	86.460892371281	802
0	3322	86.578449175967	803
0	3326	86.7595401624	804
0	3330	86.903638442463	805
0	3335	87.046275031885	806
0	3339	87.215549463117	807
0	3344	87.379297385483	808
0	3346	87.47984004944	809
0	3349	87.579746635844	810
0	3352	87.615594871146	811
0	3358	87.765111148767	812
0	3362	87.888203727843	813
0	3369	88.043061774795	814
0	3375	88.167416690172	815
0	3379	88.345543575912	816
0	3383	88.488541441384	817
0	3384	88.533946396086	818
0	3388	88.626079517267	819
0	3392	88.73524311616	820
0	3393	88.751995426327	821
0	3396	88.841844700523	822
0	3398	88.865930027167	823
0	3401	88.947149729877	824
0	3409	89.070867856445	825
0	3410	89.097429966037	826
0	3416	89.212197916836	827
0	3424	89.349373109937	828
0	3431	89.519024809015	829
0	3439	89.667853832646	830
0	3446	89.859452422197	831
0	3449	89.953511426929	832
0	3450	89.964749745764	833
0	3456	90.121917366604	834
0	3457	90.162829659017	835
0	3464	90.299161652682	836
0	3465	90.317354118076	837
0	3470	90.411358688699	838
0	3472	90.487463363434	839
0	3479	90.564167372982	840
0	3486	90.68726801241	841
0	3490	90.727735110023	842
0	3501	90.923871344074	843
0	3505	91.054650024557	844
0	3509	91.181352648462	845
0	3513	91.358774509392	846
0	3516	91.475618929068	847
0	3520	91.6741648518	848
0	3522	91.710842152199	849
0	3524	91.776584520953	850
0	3527	91.81781615289	851
0	3530	91.894595207833	852
0	3534	91.959686209336	853
0	3546	92.143772387379	854
0	3551	92.224744569918	855
0	3555	92.294542852929	856
0	3559	92.407618963162	857
0	3563	92.55388415863	858
0	3565	92.588032274656	859
0	3570	92.701000092514	860
0	3573	92.780322981584	861
0	3575	92.808620324135	862
0	3577	92.835896250715	863
0	3584	92.979469130107	864
0	3590	93.046931066986	865
0	3592	93.075880290964	866
0	3602	93.227717353576	867
0	3608	93.346236417338	868
0	3611	93.380112661598	869
0	3619	93.542350781462	870
0	3624	93.624610619068	871
0	3630	93.781609375161	872
0	3633	93.806743520364	873
0	3635	93.877816852521	874
0	3640	93.923217389103	875
0	3645	94.039436523529	876
0	3652	94.179861571979	877
0	3661	94.346585290236	878
0	3664	94.394235594445	879
0	3670	94.550259265369	880
0	3673	94.602038206435	881
0	3678	94.758983928766	882
0	3683	94.905703130236	883
0	3689	95.101181392241	884
0	3693	95.201743709072	885
0	3696	95.296258831587	886
0	3699	95.346863197157	887
0	3706	95.493985152325	888
0	3714	95.68563328514	889
0	3716	95.752662808233	890
0	3720	95.869425986078	891
0	3725	95.972693119356	892
0	3728	96.135088564753	893
0	3731	96.214296769348	894
0	3735	96.377333733595	895
0	3740	96.538294625645	896
0	3741	96.585002557581	897
0	3745	96.647950247875	898
0	3753	96.802882777694	899
0	3754	96.847994317253	900
0	3761	97.015314387764	901
0	3763	97.072833598215	902
0	3766	97.145601734827	903
0	3771	97.214092842125	904
0	3774	97.301122411507	905
0	3777	97.342150258421	906
0	3778	97.381416710305	907
0	3786	97.514563589657	908
0	3793	97.695178311209	909
0	3798	97.814266868541	910
0	3803	97.961870302681	911
0	3807	98.094126266576	912
0	3808	98.122006216338	913
0	3811	98.150712257708	914
0	3818	98.25634349498	915
0	3819	98.298736057964	916
0	3828	98.441973309864	917
0	3829	98.455966246848	918
0	3835	98.599855833878	919
0	3840	98.774666216008	920
0	3845	98.876861654907	921
0	3853	99.044787404996	922
0	3855	99.078544409701	923
0	3859	99.168920486111	924
0	3868	99.31852126651	925
0	3871	99.397379728474	926
0	3875	99.480096187466	927
0	3878	99.57665078175	928
0	3882	99.676069189363	929
0	3887	99.759882307641	930
0	3890	99.810945491979	931
0	3892	99.882880467823	932
0	3896	99.936294262381	933
0	3897	99.973907657573	934
0	3903	100.074320905684	935
0	3907	100.162159502774	936
0	3915	100.287116508493	937
0	3918	100.33686650095	938
0	3925	100.427865124864	939
0	3931	100.539221985706	940
0	3939	100.737507737002	941
0	3945	100.88462895623	942
0	3947	100.958952054331	943
0	3952	101.157075143951	944
0	3954	101.192791856668	945
0	3956	101.315846534989	946
0	3957	101.384100422406	947
0	3960	101.551769136769	948
0	3961	101.636854063772	949
0	3964	101.743014436892	950
0	3969	101.933972422166	951
0	3972	102.009811822499	952
0	3976	102.057341574129	953
0	3983	102.196454541023	954
0	3986	102.244475316334	955
0	3995	102.442782269093	956
0	3998	102.493786808721	957
0	4003	102.604529477964	958
0	4005	102.631783268513	959
0	4006	102.654243865757	960
0	4014	102.784570714395	961
0	4018	102.935446971409	962
0	4021	103.076761459541	963
0	4023	103.126304782713	964
0	4030	103.301166696199	965
0	4035	103.439633311438	966
0	4038	103.50142010404	967
0	4044	103.637476971496	968
0	4053	103.834360122867	969
0	4060	103.991602503238	970
0	4064	104.087875582133	971
0	4069	104.191405204068	972
0	4071	104.280367058303	973
0	4075	104.330724142985	974
0	4076	104.378351932221	975
0	4085	104.533281338275	976
0	4092	104.67046546976	977
0	4101	104.827459218219	978
0	4103	104.848090288701	979
0	4111	105.019492486281	980
0	4116	105.189603351304	981
0	4117	105.223161244358	982
0	4120	105.290437246662	983
0	4126	105.414614476756	984
0	4128	105.481758668354	985
0	4135	105.635729506536	986
0	4142	105.78774386536	987
0	4144	105.817745822192	988
0	4148	105.849202797761	989
0	4152	105.95406416461	990
0	4155	105.989911004651	991
0	4161	106.101199193484	992
0	4163	106.117556048177	993
0	4165	106.144258791089	994
0	4178	106.315554661028	995
0	4182	106.358788569175	996
0	4188	106.515401079488	997
0	4194	106.626254371289	998
0	4195	106.636408767526	999
0	4200	106.744967055785	1000
0	4206	106.861013278012	1001
0	4212	107.05440248194	1002
0	4217	107.168809204289	1003
0	4223	107.356042378374	1004
0	4225	107.386158570535	1005
0	4228	107.491823143351	1006
0	4231	107.61262516859	1007
0	4232	107.661993575988	1008
0	4235	107.719108265087	1009
0	4237	107.768949772283	1010
0	4242	107.859864744421	1011
0	4250	107.976220018578	1012
0	4260	108.141064485743	1013
0	4264	108.23450018677	1014
0	4265	108.247181503245	1015
0	4273	108.387833575244	1016
0	4277	108.478889159203	1017
0	4282	108.677286011755	1018
0	4286	108.869908394661	1019
0	4289	108.939727616053	1020
0	4291	109.0267805584	1021
0	4297	109.147250304773	1022
0	4303	109.31579712876	1023
0	4306	109.432294389781	1024
0	4308	109.492454771503	1025
0	4311	109.601941305305	1026
0	4317	109.735515737458	1027
0	4320	109.778758211861	1028
0	4326	109.870654799997	1029
0	4336	110.05611918992	1030
0	4338	110.099478910743	1031
0	4340	110.152143025196	1032
0	4346	110.30209196429	1033
0	4354	110.480808019035	1034
0	4360	110.633866569672	1035
0	4364	110.709806166196	1036
0	4366	110.753234315941	1037
0	4370	110.872228207253	1038
0	4376	111.069388717648	1039
0	4380	111.174629039927	1040
0	4382	111.202812362278	1041
0	4389	111.324389401073	1042
0	4392	111.397483527348	1043
0	4396	111.484636937505	1044
0	4406	111.657736812832	1045
0	4410	111.721729503784	1046
0	4415	111.833187197177	1047
0	4421	111.94237636416	1048
0	4424	112.037065413247	1049
0	4431	112.144809186007	1050
0	4436	112.235304704891	1051
0	4446	112.431345295443	1052
0	4449	112.471902287053	1053
0	4455	112.589565510377	1054
0	4463	112.781421772546	1055
0	4465	112.854720291318	1056
0	4467	112.889744347899	1057
0	4469	112.945189560686	1058
0	4475	113.127676432761	1059
0	4479	113.321112673659	1060
0	4482	113.414483509121	1061
0	4484	113.431118326817	1062
0	4489	113.541561070349	1063
0	4492	113.608001904461	1064
0	4501	113.744656020209	1065
0	4509	113.939330856739	1066
0	4515	114.05876309789	1067
0	4517	114.137030341311	1068
0	4524	114.259243829567	1069
0	4526	114.290599786255	1070
0	4531	114.429780524785	1071
0	4535	114.515611847455	1072
0	4542	114.671777659103	1073
0	4547	114.79490428281	1074
0	4548	114.877272254154	1075
0	4554	115.026005994426	1076
0	4556	115.095770874033	1077
0	4560	115.130509817584	1078
0	4566	115.270606003611	1079
0	4567	115.303451908203	1080
0	4577	115.503321702623	1081
0	4584	115.654611508824	1082
0	4588	115.810764388296	1083
0	4591	115.884883833822	1084
0	4594	115.959357081108	1085
0	4599	116.110459603214	1086