version 3
run General-1-20231019-20:11:41-68151
attr configname General
attr datetime 20231019-20:11:41
attr datetimef 20231019-201141
attr experiment General
attr inifile omnetpp.ini
attr iterationvars ""
attr iterationvarsd ""
attr iterationvarsf ""
attr measurement ""
attr network Reliability
attr processid 68151
attr repetition 1
attr replication #1
attr resultdir results
attr runnumber 1
attr seedset 1
config network Reliability
config Reliability.node[*].transmissionTime "uniform(1s, 2s)"
config Reliability.node[*].delayTime "uniform(0.01s, 0.2s)"
config Reliability.node[*].lossProbability 0.3
config record-eventlog true
config sim-time-limit 1000s
config repeat 5

vector 0 Reliability.node[0] txVector ETV
vector 1 Reliability.node[1] txVector ETV
vector 2 Reliability.node[1] rxVector ETV
vector 3 Reliability.node[4] txVector ETV
vector 4 Reliability.node[4] rxVector ETV
vector 5 Reliability.node[3] txVector ETV
vector 6 Reliability.node[3] rxVector ETV
vector 7 Reliability.node[2] txVector ETV
vector 8 Reliability.node[2] rxVector ETV
vector 9 Reliability.node[5] txVector ETV
vector 10 Reliability.node[5] rxVector ETV
vector 11 Reliability.node[6] rxVector ETV
vector 12 Reliability.node[6] e2eVector ETV
vector 13 Reliability.node[0] rxVector ETV
0	1	0.089234179703	1
0	1	0.089234179703	1
0	1	0.089234179703	1
0	19	1.809558668991	2
0	19	1.809558668991	2
0	19	1.809558668991	2
0	21	3.748686463924	3
0	21	3.748686463924	3
0	21	3.748686463924	3
0	39	5.549431030292	4
0	39	5.549431030292	4
0	39	5.549431030292	4
0	41	6.961969875384	5
0	41	6.961969875384	5
0	41	6.961969875384	5
0	49	8.712114187775	6
0	49	8.712114187775	6
0	49	8.712114187775	6
0	51	9.808286446731	7
0	51	9.808286446731	7
0	51	9.808286446731	7
0	53	11.096061789782	8
0	53	11.096061789782	8
0	53	11.096061789782	8
0	55	12.620861172795	9
0	55	12.620861172795	9
0	55	12.620861172795	9
0	73	14.299696703328	10
0	73	14.299696703328	10
0	73	14.299696703328	10
0	91	15.329498063427	11
0	91	15.329498063427	11
0	91	15.329498063427	11
0	109	16.757589253717	12
0	109	16.757589253717	12
0	109	16.757589253717	12
0	127	18.228230058801	13
0	127	18.228230058801	13
0	127	18.228230058801	13
0	129	19.254441046043	14
0	129	19.254441046043	14
0	129	19.254441046043	14
0	131	20.764251324235	15
0	131	20.764251324235	15
0	131	20.764251324235	15
0	133	22.624279274725	16
0	133	22.624279274725	16
0	133	22.624279274725	16
0	139	23.856037738154	17
0	139	23.856037738154	17
0	139	23.856037738154	17
0	157	25.825633483826	18
0	157	25.825633483826	18
0	157	25.825633483826	18
0	159	27.479957255422	19
0	159	27.479957255422	19
0	159	27.479957255422	19
0	161	28.551931538506	20
0	161	28.551931538506	20
0	161	28.551931538506	20
0	179	29.912746293357	21
0	179	29.912746293357	21
0	179	29.912746293357	21
0	194	31.481597731009	22
0	194	31.481597731009	22
0	194	31.481597731009	22
0	196	32.838061412915	23
0	196	32.838061412915	23
0	196	32.838061412915	23
0	198	34.642815978385	24
0	198	34.642815978385	24
0	198	34.642815978385	24
0	216	36.573828906871	25
0	216	36.573828906871	25
0	216	36.573828906871	25
0	218	37.963836624872	26
0	218	37.963836624872	26
0	218	37.963836624872	26
0	236	39.130788217418	27
0	236	39.130788217418	27
0	236	39.130788217418	27
0	254	40.940278908124	28
0	254	40.940278908124	28
0	254	40.940278908124	28
0	270	42.175547234833	29
0	270	42.175547234833	29
0	270	42.175547234833	29
0	288	43.750258742718	30
0	288	43.750258742718	30
0	288	43.750258742718	30
0	306	44.918089541493	31
0	306	44.918089541493	31
0	306	44.918089541493	31
0	308	46.688973456042	32
0	308	46.688973456042	32
0	308	46.688973456042	32
0	326	47.756005506849	33
0	326	47.756005506849	33
0	326	47.756005506849	33
0	344	49.67231105862	34
0	344	49.67231105862	34
0	344	49.67231105862	34
0	362	51.352751125468	35
0	362	51.352751125468	35
0	362	51.352751125468	35
0	380	53.004055458473	36
0	380	53.004055458473	36
0	380	53.004055458473	36
0	398	54.558087611923	37
0	398	54.558087611923	37
0	398	54.558087611923	37
0	404	55.999991890162	38
0	404	55.999991890162	38
0	404	55.999991890162	38
0	422	57.646745804351	39
0	422	57.646745804351	39
0	422	57.646745804351	39
0	424	59.356133057157	40
0	424	59.356133057157	40
0	424	59.356133057157	40
0	442	60.728220730907	41
0	442	60.728220730907	41
0	442	60.728220730907	41
0	460	61.746553369685	42
0	460	61.746553369685	42
0	460	61.746553369685	42
0	466	63.465642729894	43
0	466	63.465642729894	43
0	466	63.465642729894	43
0	482	65.371044763717	44
0	482	65.371044763717	44
0	482	65.371044763717	44
0	500	67.260419512055	45
0	500	67.260419512055	45
0	500	67.260419512055	45
0	502	68.287706736828	46
0	502	68.287706736828	46
0	502	68.287706736828	46
0	520	69.593504976834	47
0	520	69.593504976834	47
0	520	69.593504976834	47
0	536	71.437834928165	48
0	536	71.437834928165	48
0	536	71.437834928165	48
0	538	72.713305115587	49
0	538	72.713305115587	49
0	538	72.713305115587	49
0	540	74.377407677126	50
0	540	74.377407677126	50
0	540	74.377407677126	50
0	555	76.156046082851	51
0	555	76.156046082851	51
0	555	76.156046082851	51
0	573	78.131396114247	52
0	573	78.131396114247	52
0	573	78.131396114247	52
0	591	80.12533399754	53
0	591	80.12533399754	53
0	591	80.12533399754	53
0	609	81.812142221376	54
0	609	81.812142221376	54
0	609	81.812142221376	54
0	611	83.062011884877	55
0	611	83.062011884877	55
0	611	83.062011884877	55
0	613	84.835811171799	56
0	613	84.835811171799	56
0	613	84.835811171799	56
0	629	86.360087074923	57
0	629	86.360087074923	57
0	629	86.360087074923	57
0	647	88.159863612034	58
0	647	88.159863612034	58
0	647	88.159863612034	58
0	665	89.692540889258	59
0	665	89.692540889258	59
0	665	89.692540889258	59
0	683	91.52781249222	60
0	683	91.52781249222	60
0	683	91.52781249222	60
0	701	93.311837314047	61
0	701	93.311837314047	61
0	701	93.311837314047	61
0	719	94.870741120424	62
0	719	94.870741120424	62
0	719	94.870741120424	62
0	734	96.146325007897	63
0	734	96.146325007897	63
0	734	96.146325007897	63
0	736	97.470463542385	64
0	736	97.470463542385	64
0	736	97.470463542385	64
0	754	98.934696555488	65
0	754	98.934696555488	65
0	754	98.934696555488	65
0	772	100.540175555159	66
0	772	100.540175555159	66
0	772	100.540175555159	66
0	790	102.159509739025	67
0	790	102.159509739025	67
0	790	102.159509739025	67
0	792	103.842974640081	68
0	792	103.842974640081	68
0	792	103.842974640081	68
0	800	105.229573270191	69
0	800	105.229573270191	69
0	800	105.229573270191	69
0	802	106.945518973168	70
0	802	106.945518973168	70
0	802	106.945518973168	70
0	820	107.948065508507	71
0	820	107.948065508507	71
0	820	107.948065508507	71
0	822	109.323156529223	72
0	822	109.323156529223	72
0	822	109.323156529223	72
0	840	110.585374948918	73
0	840	110.585374948918	73
0	840	110.585374948918	73
0	858	112.031492169597	74
0	858	112.031492169597	74
0	858	112.031492169597	74
0	876	113.064452966559	75
0	876	113.064452966559	75
0	876	113.064452966559	75
0	894	114.561742152204	76
0	894	114.561742152204	76
0	894	114.561742152204	76
0	909	116.170051774592	77
0	909	116.170051774592	77
0	909	116.170051774592	77
0	927	117.369547316921	78
0	927	117.369547316921	78
0	927	117.369547316921	78
0	945	118.38256180624	79
0	945	118.38256180624	79
0	945	118.38256180624	79
0	963	120.377614122466	80
0	963	120.377614122466	80
0	963	120.377614122466	80
0	971	121.44891373103	81
0	971	121.44891373103	81
0	971	121.44891373103	81
0	989	122.867049863678	82
0	989	122.867049863678	82
0	989	122.867049863678	82
0	1007	124.255147289368	83
0	1007	124.255147289368	83
0	1007	124.255147289368	83
0	1009	125.72915358108	84
0	1009	125.72915358108	84
0	1009	125.72915358108	84
0	1027	127.587890270748	85
0	1027	127.587890270748	85
0	1027	127.587890270748	85
0	1029	129.159432366839	86
0	1029	129.159432366839	86
0	1029	129.159432366839	86
0	1031	130.944242939702	87
0	1031	130.944242939702	87
0	1031	130.944242939702	87
0	1033	132.818368875538	88
0	1033	132.818368875538	88
0	1033	132.818368875538	88
0	1051	134.542400690378	89
0	1051	134.542400690378	89
0	1051	134.542400690378	89
0	1067	135.864229488303	90
0	1067	135.864229488303	90
0	1067	135.864229488303	90
0	1085	137.481588446652	91
0	1085	137.481588446652	91
0	1085	137.481588446652	91
0	1103	138.524879387697	92
0	1103	138.524879387697	92
0	1103	138.524879387697	92
0	1105	139.536958200276	93
0	1105	139.536958200276	93
0	1105	139.536958200276	93
0	1107	141.137447155664	94
0	1107	141.137447155664	94
0	1107	141.137447155664	94
0	1109	142.831606713241	95
0	1109	142.831606713241	95
0	1109	142.831606713241	95
0	1127	143.962117383607	96
0	1127	143.962117383607	96
0	1127	143.962117383607	96
0	1129	145.146567999503	97
0	1129	145.146567999503	97
0	1129	145.146567999503	97
0	1147	147.030323508779	98
0	1147	147.030323508779	98
0	1147	147.030323508779	98
0	1165	148.545086686617	99
0	1165	148.545086686617	99
0	1165	148.545086686617	99
0	1167	149.581155005262	100
0	1167	149.581155005262	100
0	1167	149.581155005262	100
0	1185	151.432069194156	101
0	1185	151.432069194156	101
0	1185	151.432069194156	101
0	1203	152.504016415102	102
0	1203	152.504016415102	102
0	1203	152.504016415102	102
0	1205	154.151383311607	103
0	1205	154.151383311607	103
0	1205	154.151383311607	103
0	1223	155.328062200805	104
0	1223	155.328062200805	104
0	1223	155.328062200805	104
0	1225	156.865407936627	105
0	1225	156.865407936627	105
0	1225	156.865407936627	105
0	1243	157.890884169962	106
0	1243	157.890884169962	106
0	1243	157.890884169962	106
0	1245	159.71163108724	107
0	1245	159.71163108724	107
0	1245	159.71163108724	107
0	1260	161.590218951114	108
0	1260	161.590218951114	108
0	1260	161.590218951114	108
0	1278	163.448980589051	109
0	1278	163.448980589051	109
0	1278	163.448980589051	109
0	1296	164.936174494334	110
0	1296	164.936174494334	110
0	1296	164.936174494334	110
0	1298	166.357580925458	111
0	1298	166.357580925458	111
0	1298	166.357580925458	111
0	1300	168.253903482928	112
0	1300	168.253903482928	112
0	1300	168.253903482928	112
0	1315	170.034827221305	113
0	1315	170.034827221305	113
0	1315	170.034827221305	113
0	1317	171.225697167105	114
0	1317	171.225697167105	114
0	1317	171.225697167105	114
0	1335	172.403002798677	115
0	1335	172.403002798677	115
0	1335	172.403002798677	115
0	1337	173.482344384192	116
0	1337	173.482344384192	116
0	1337	173.482344384192	116
0	1355	175.047469463785	117
0	1355	175.047469463785	117
0	1355	175.047469463785	117
0	1373	176.637420758492	118
0	1373	176.637420758492	118
0	1373	176.637420758492	118
0	1391	178.204821619092	119
0	1391	178.204821619092	119
0	1391	178.204821619092	119
0	1409	179.30977528205	120
0	1409	179.30977528205	120
0	1409	179.30977528205	120
0	1411	180.519159392806	121
0	1411	180.519159392806	121
0	1411	180.519159392806	121
0	1413	182.283886037188	122
0	1413	182.283886037188	122
0	1413	182.283886037188	122
0	1415	183.45960029669	123
0	1415	183.45960029669	123
0	1415	183.45960029669	123
0	1417	184.736800404618	124
0	1417	184.736800404618	124
0	1417	184.736800404618	124
0	1435	185.84677722643	125
0	1435	185.84677722643	125
0	1435	185.84677722643	125
0	1451	186.920243883858	126
0	1451	186.920243883858	126
0	1451	186.920243883858	126
0	1469	188.617866422169	127
0	1469	188.617866422169	127
0	1469	188.617866422169	127
0	1484	190.391782667141	128
0	1484	190.391782667141	128
0	1484	190.391782667141	128
0	1502	192.297518188253	129
0	1502	192.297518188253	129
0	1502	192.297518188253	129
0	1504	193.523325113699	130
0	1504	193.523325113699	130
0	1504	193.523325113699	130
0	1506	195.069069315799	131
0	1506	195.069069315799	131
0	1506	195.069069315799	131
0	1524	196.976465455143	132
0	1524	196.976465455143	132
0	1524	196.976465455143	132
0	1526	198.45800032269	133
0	1526	198.45800032269	133
0	1526	198.45800032269	133
0	1541	199.974198785497	134
0	1541	199.974198785497	134
0	1541	199.974198785497	134
0	1559	201.468031832835	135
0	1559	201.468031832835	135
0	1559	201.468031832835	135
0	1577	202.910132942375	136
0	1577	202.910132942375	136
0	1577	202.910132942375	136
0	1579	204.900096773057	137
0	1579	204.900096773057	137
0	1579	204.900096773057	137
0	1597	206.586540187829	138
0	1597	206.586540187829	138
0	1597	206.586540187829	138
0	1599	208.328380128954	139
0	1599	208.328380128954	139
0	1599	208.328380128954	139
0	1611	210.002878972914	140
0	1611	210.002878972914	140
0	1611	210.002878972914	140
0	1613	211.886976229845	141
0	1613	211.886976229845	141
0	1613	211.886976229845	141
0	1631	212.897675231684	142
0	1631	212.897675231684	142
0	1631	212.897675231684	142
0	1637	213.950668888053	143
0	1637	213.950668888053	143
0	1637	213.950668888053	143
0	1653	215.920539460963	144
0	1653	215.920539460963	144
0	1653	215.920539460963	144
0	1655	217.880522393741	145
0	1655	217.880522393741	145
0	1655	217.880522393741	145
0	1673	219.251586340953	146
0	1673	219.251586340953	146
0	1673	219.251586340953	146
0	1691	221.126084490566	147
0	1691	221.126084490566	147
0	1691	221.126084490566	147
0	1709	222.733526380387	148
0	1709	222.733526380387	148
0	1709	222.733526380387	148
0	1711	224.679933235868	149
0	1711	224.679933235868	149
0	1711	224.679933235868	149
0	1729	226.58067544748	150
0	1729	226.58067544748	150
0	1729	226.58067544748	150
0	1731	228.513136544152	151
0	1731	228.513136544152	151
0	1731	228.513136544152	151
0	1749	230.22706457938	152
0	1749	230.22706457938	152
0	1749	230.22706457938	152
0	1764	231.612207876406	153
0	1764	231.612207876406	153
0	1764	231.612207876406	153
0	1766	233.491274281758	154
0	1766	233.491274281758	154
0	1766	233.491274281758	154
0	1784	235.157869789171	155
0	1784	235.157869789171	155
0	1784	235.157869789171	155
0	1802	236.650293835792	156
0	1802	236.650293835792	156
0	1802	236.650293835792	156
0	1804	237.940707020815	157
0	1804	237.940707020815	157
0	1804	237.940707020815	157
0	1822	239.559920317847	158
0	1822	239.559920317847	158
0	1822	239.559920317847	158
0	1840	240.944435786111	159
0	1840	240.944435786111	159
0	1840	240.944435786111	159
0	1856	242.899825771693	160
0	1856	242.899825771693	160
0	1856	242.899825771693	160
0	1874	244.811161877708	161
0	1874	244.811161877708	161
0	1874	244.811161877708	161
0	1892	246.61957323377	162
0	1892	246.61957323377	162
0	1892	246.61957323377	162
0	1910	248.376461732555	163
0	1910	248.376461732555	163
0	1910	248.376461732555	163
0	1928	250.290305608539	164
0	1928	250.290305608539	164
0	1928	250.290305608539	164
0	1941	251.957868153118	165
0	1941	251.957868153118	165
0	1941	251.957868153118	165
0	1959	253.002022946841	166
0	1959	253.002022946841	166
0	1959	253.002022946841	166
0	1961	254.273395874892	167
0	1961	254.273395874892	167
0	1961	254.273395874892	167
0	1979	256.061445427947	168
0	1979	256.061445427947	168
0	1979	256.061445427947	168
0	1981	258.026470977934	169
0	1981	258.026470977934	169
0	1981	258.026470977934	169
0	1999	260.024884537682	170
0	1999	260.024884537682	170
0	1999	260.024884537682	170
0	2001	261.776140651554	171
0	2001	261.776140651554	171
0	2001	261.776140651554	171
0	2016	263.201865064101	172
0	2016	263.201865064101	172
0	2016	263.201865064101	172
0	2018	264.722923636092	173
0	2018	264.722923636092	173
0	2018	264.722923636092	173
0	2036	265.942077438235	174
0	2036	265.942077438235	174
0	2036	265.942077438235	174
0	2038	267.647465499937	175
0	2038	267.647465499937	175
0	2038	267.647465499937	175
0	2053	269.446085811248	176
0	2053	269.446085811248	176
0	2053	269.446085811248	176
0	2069	270.972762423921	177
0	2069	270.972762423921	177
0	2069	270.972762423921	177
0	2087	272.495770956277	178
0	2087	272.495770956277	178
0	2087	272.495770956277	178
0	2105	274.236554735926	179
0	2105	274.236554735926	179
0	2105	274.236554735926	179
0	2107	275.50895559078	180
0	2107	275.50895559078	180
0	2107	275.50895559078	180
0	2125	276.622308333757	181
0	2125	276.622308333757	181
0	2125	276.622308333757	181
0	2143	277.854408357878	182
0	2143	277.854408357878	182
0	2143	277.854408357878	182
0	2145	279.734490871317	183
0	2145	279.734490871317	183
0	2145	279.734490871317	183
0	2163	281.477881382573	184
0	2163	281.477881382573	184
0	2163	281.477881382573	184
0	2179	282.874639256512	185
0	2179	282.874639256512	185
0	2179	282.874639256512	185
0	2197	284.719627391667	186
0	2197	284.719627391667	186
0	2197	284.719627391667	186
0	2199	285.799294264874	187
0	2199	285.799294264874	187
0	2199	285.799294264874	187
0	2201	287.725014805681	188
0	2201	287.725014805681	188
0	2201	287.725014805681	188
0	2219	289.527765799667	189
0	2219	289.527765799667	189
0	2219	289.527765799667	189
0	2237	290.979127660514	190
0	2237	290.979127660514	190
0	2237	290.979127660514	190
0	2255	292.103210803242	191
0	2255	292.103210803242	191
0	2255	292.103210803242	191
0	2273	293.288254147749	192
0	2273	293.288254147749	192
0	2273	293.288254147749	192
0	2275	295.012317797523	193
0	2275	295.012317797523	193
0	2275	295.012317797523	193
0	2293	296.650661131488	194
0	2293	296.650661131488	194
0	2293	296.650661131488	194
0	2311	298.27912708058	195
0	2311	298.27912708058	195
0	2311	298.27912708058	195
0	2326	300.199080653377	196
0	2326	300.199080653377	196
0	2326	300.199080653377	196
0	2341	301.406120715784	197
0	2341	301.406120715784	197
0	2341	301.406120715784	197
0	2359	302.562477641162	198
0	2359	302.562477641162	198
0	2359	302.562477641162	198
0	2377	303.894777267594	199
0	2377	303.894777267594	199
0	2377	303.894777267594	199
0	2379	305.753388970979	200
0	2379	305.753388970979	200
0	2379	305.753388970979	200
0	2397	306.927871726342	201
0	2397	306.927871726342	201
0	2397	306.927871726342	201
0	2399	308.515356210648	202
0	2399	308.515356210648	202
0	2399	308.515356210648	202
0	2417	310.512702703831	203
0	2417	310.512702703831	203
0	2417	310.512702703831	203
0	2419	312.366762499913	204
0	2419	312.366762499913	204
0	2419	312.366762499913	204
0	2437	314.342174996046	205
0	2437	314.342174996046	205
0	2437	314.342174996046	205
0	2455	316.247983412707	206
0	2455	316.247983412707	206
0	2455	316.247983412707	206
0	2473	318.078604963731	207
0	2473	318.078604963731	207
0	2473	318.078604963731	207
0	2475	319.111513685558	208
0	2475	319.111513685558	208
0	2475	319.111513685558	208
0	2493	321.013498606283	209
0	2493	321.013498606283	209
0	2493	321.013498606283	209
0	2511	322.628280498443	210
0	2511	322.628280498443	210
0	2511	322.628280498443	210
0	2522	324.130485949229	211
0	2522	324.130485949229	211
0	2522	324.130485949229	211
0	2540	325.280584409955	212
0	2540	325.280584409955	212
0	2540	325.280584409955	212
0	2555	326.461395607685	213
0	2555	326.461395607685	213
0	2555	326.461395607685	213
0	2573	328.201689237618	214
0	2573	328.201689237618	214
0	2573	328.201689237618	214
0	2591	329.660668545758	215
0	2591	329.660668545758	215
0	2591	329.660668545758	215
0	2607	331.111561201868	216
0	2607	331.111561201868	216
0	2607	331.111561201868	216
0	2625	332.658086425514	217
0	2625	332.658086425514	217
0	2625	332.658086425514	217
0	2643	333.723708426003	218
0	2643	333.723708426003	218
0	2643	333.723708426003	218
0	2661	335.181829537154	219
0	2661	335.181829537154	219
0	2661	335.181829537154	219
0	2663	336.455747633596	220
0	2663	336.455747633596	220
0	2663	336.455747633596	220
0	2681	337.464679367962	221
0	2681	337.464679367962	221
0	2681	337.464679367962	221
0	2683	338.583409772609	222
0	2683	338.583409772609	222
0	2683	338.583409772609	222
0	2701	340.074318191391	223
0	2701	340.074318191391	223
0	2701	340.074318191391	223
0	2719	341.812125566537	224
0	2719	341.812125566537	224
0	2719	341.812125566537	224
0	2737	342.867616456124	225
0	2737	342.867616456124	225
0	2737	342.867616456124	225
0	2739	344.286325136554	226
0	2739	344.286325136554	226
0	2739	344.286325136554	226
0	2757	345.653705386101	227
0	2757	345.653705386101	227
0	2757	345.653705386101	227
0	2773	346.920745697693	228
0	2773	346.920745697693	228
0	2773	346.920745697693	228
0	2791	348.165970010805	229
0	2791	348.165970010805	229
0	2791	348.165970010805	229
0	2807	349.198835262219	230
0	2807	349.198835262219	230
0	2807	349.198835262219	230
0	2825	350.512049768474	231
0	2825	350.512049768474	231
0	2825	350.512049768474	231
0	2827	352.228036220772	232
0	2827	352.228036220772	232
0	2827	352.228036220772	232
0	2843	353.819755640002	233
0	2843	353.819755640002	233
0	2843	353.819755640002	233
0	2845	354.872539497102	234
0	2845	354.872539497102	234
0	2845	354.872539497102	234
0	2863	356.853555303887	235
0	2863	356.853555303887	235
0	2863	356.853555303887	235
0	2881	358.529002816072	236
0	2881	358.529002816072	236
0	2881	358.529002816072	236
0	2883	360.161317413328	237
0	2883	360.161317413328	237
0	2883	360.161317413328	237
0	2899	362.07871359948	238
0	2899	362.07871359948	238
0	2899	362.07871359948	238
0	2901	363.291960667939	239
0	2901	363.291960667939	239
0	2901	363.291960667939	239
0	2903	364.620070984009	240
0	2903	364.620070984009	240
0	2903	364.620070984009	240
0	2921	366.491938687516	241
0	2921	366.491938687516	241
0	2921	366.491938687516	241
0	2934	368.086542572248	242
0	2934	368.086542572248	242
0	2934	368.086542572248	242
0	2952	369.643155043134	243
0	2952	369.643155043134	243
0	2952	369.643155043134	243
0	2954	370.894812020128	244
0	2954	370.894812020128	244
0	2954	370.894812020128	244
0	2956	372.361349344607	245
0	2956	372.361349344607	245
0	2956	372.361349344607	245
0	2974	373.550941062048	246
0	2974	373.550941062048	246
0	2974	373.550941062048	246
0	2992	375.448525830759	247
0	2992	375.448525830759	247
0	2992	375.448525830759	247
0	3010	376.687041842733	248
0	3010	376.687041842733	248
0	3010	376.687041842733	248
0	3028	377.986918849992	249
0	3028	377.986918849992	249
0	3028	377.986918849992	249
0	3030	379.516174780093	250
0	3030	379.516174780093	250
0	3030	379.516174780093	250
0	3048	381.361662489483	251
0	3048	381.361662489483	251
0	3048	381.361662489483	251
0	3050	382.645605930481	252
0	3050	382.645605930481	252
0	3050	382.645605930481	252
0	3068	383.8322275664	253
0	3068	383.8322275664	253
0	3068	383.8322275664	253
0	3086	385.368251581564	254
0	3086	385.368251581564	254
0	3086	385.368251581564	254
0	3094	387.205840243846	255
0	3094	387.205840243846	255
0	3094	387.205840243846	255
0	3110	389.047738251863	256
0	3110	389.047738251863	256
0	3110	389.047738251863	256
0	3112	390.813937905598	257
0	3112	390.813937905598	257
0	3112	390.813937905598	257
0	3130	392.121526495674	258
0	3130	392.121526495674	258
0	3130	392.121526495674	258
0	3132	393.9783188185	259
0	3132	393.9783188185	259
0	3132	393.9783188185	259
0	3134	395.955774388164	260
0	3134	395.955774388164	260
0	3134	395.955774388164	260
0	3149	397.438386049708	261
0	3149	397.438386049708	261
0	3149	397.438386049708	261
0	3167	399.145335498852	262
0	3167	399.145335498852	262
0	3167	399.145335498852	262
0	3169	400.72232673306	263
0	3169	400.72232673306	263
0	3169	400.72232673306	263
0	3187	402.643002329981	264
0	3187	402.643002329981	264
0	3187	402.643002329981	264
0	3205	404.089689685851	265
0	3205	404.089689685851	265
0	3205	404.089689685851	265
0	3223	405.801970688048	266
0	3223	405.801970688048	266
0	3223	405.801970688048	266
0	3225	407.328387055434	267
0	3225	407.328387055434	267
0	3225	407.328387055434	267
0	3227	408.71575536754	268
0	3227	408.71575536754	268
0	3227	408.71575536754	268
0	3235	409.77208456316	269
0	3235	409.77208456316	269
0	3235	409.77208456316	269
0	3237	411.021566620683	270
0	3237	411.021566620683	270
0	3237	411.021566620683	270
0	3239	412.122694449853	271
0	3239	412.122694449853	271
0	3239	412.122694449853	271
0	3257	413.229408537159	272
0	3257	413.229408537159	272
0	3257	413.229408537159	272
0	3275	414.956857213639	273
0	3275	414.956857213639	273
0	3275	414.956857213639	273
0	3287	416.672689184202	274
0	3287	416.672689184202	274
0	3287	416.672689184202	274
0	3305	418.379677918162	275
0	3305	418.379677918162	275
0	3305	418.379677918162	275
0	3320	420.366080489363	276
0	3320	420.366080489363	276
0	3320	420.366080489363	276
0	3338	421.392320148302	277
0	3338	421.392320148302	277
0	3338	421.392320148302	277
0	3340	422.612849944392	278
0	3340	422.612849944392	278
0	3340	422.612849944392	278
0	3358	424.334621802559	279
0	3358	424.334621802559	279
0	3358	424.334621802559	279
0	3376	425.430980353271	280
0	3376	425.430980353271	280
0	3376	425.430980353271	280
0	3394	426.563117962684	281
0	3394	426.563117962684	281
0	3394	426.563117962684	281
0	3412	428.188408896215	282
0	3412	428.188408896215	282
0	3412	428.188408896215	282
0	3428	429.259916574815	283
0	3428	429.259916574815	283
0	3428	429.259916574815	283
0	3446	430.660984876454	284
0	3446	430.660984876454	284
0	3446	430.660984876454	284
0	3448	432.558505882397	285
0	3448	432.558505882397	285
0	3448	432.558505882397	285
0	3464	434.350818756623	286
0	3464	434.350818756623	286
0	3464	434.350818756623	286
0	3466	435.664895638479	287
0	3466	435.664895638479	287
0	3466	435.664895638479	287
0	3484	437.191504973574	288
0	3484	437.191504973574	288
0	3484	437.191504973574	288
0	3486	439.035441073012	289
0	3486	439.035441073012	289
0	3486	439.035441073012	289
0	3504	440.87539484364	290
0	3504	440.87539484364	290
0	3504	440.87539484364	290
0	3506	442.675540837581	291
0	3506	442.675540837581	291
0	3506	442.675540837581	291
0	3524	443.676327377912	292
0	3524	443.676327377912	292
0	3524	443.676327377912	292
0	3539	445.20212511451	293
0	3539	445.20212511451	293
0	3539	445.20212511451	293
0	3541	446.280648030229	294
0	3541	446.280648030229	294
0	3541	446.280648030229	294
0	3559	448.113592211511	295
0	3559	448.113592211511	295
0	3559	448.113592211511	295
0	3577	449.527570125069	296
0	3577	449.527570125069	296
0	3577	449.527570125069	296
0	3579	451.240951926102	297
0	3579	451.240951926102	297
0	3579	451.240951926102	297
0	3597	452.592995324991	298
0	3597	452.592995324991	298
0	3597	452.592995324991	298
0	3615	453.689286182755	299
0	3615	453.689286182755	299
0	3615	453.689286182755	299
0	3633	455.078265321561	300
0	3633	455.078265321561	300
0	3633	455.078265321561	300
0	3648	456.722573645999	301
0	3648	456.722573645999	301
0	3648	456.722573645999	301
0	3650	457.830952536668	302
0	3650	457.830952536668	302
0	3650	457.830952536668	302
0	3668	459.426431299075	303
0	3668	459.426431299075	303
0	3668	459.426431299075	303
0	3686	461.233622401375	304
0	3686	461.233622401375	304
0	3686	461.233622401375	304
0	3694	463.204975552512	305
0	3694	463.204975552512	305
0	3694	463.204975552512	305
0	3712	465.114478905573	306
0	3712	465.114478905573	306
0	3712	465.114478905573	306
0	3730	466.867692450648	307
0	3730	466.867692450648	307
0	3730	466.867692450648	307
0	3748	468.58043423214	308
0	3748	468.58043423214	308
0	3748	468.58043423214	308
0	3763	469.641999762394	309
0	3763	469.641999762394	309
0	3763	469.641999762394	309
0	3765	471.134467753703	310
0	3765	471.134467753703	310
0	3765	471.134467753703	310
0	3783	472.366073145187	311
0	3783	472.366073145187	311
0	3783	472.366073145187	311
0	3785	473.475671753642	312
0	3785	473.475671753642	312
0	3785	473.475671753642	312
0	3803	474.935844397061	313
0	3803	474.935844397061	313
0	3803	474.935844397061	313
0	3818	476.16716331116	314
0	3818	476.16716331116	314
0	3818	476.16716331116	314
0	3820	477.197967022546	315
0	3820	477.197967022546	315
0	3820	477.197967022546	315
0	3838	478.299632314016	316
0	3838	478.299632314016	316
0	3838	478.299632314016	316
0	3856	480.052040462737	317
0	3856	480.052040462737	317
0	3856	480.052040462737	317
0	3868	481.980903264257	318
0	3868	481.980903264257	318
0	3868	481.980903264257	318
0	3870	483.448976429068	319
0	3870	483.448976429068	319
0	3870	483.448976429068	319
0	3886	484.902780612587	320
0	3886	484.902780612587	320
0	3886	484.902780612587	320
0	3904	486.885297952109	321
0	3904	486.885297952109	321
0	3904	486.885297952109	321
0	3922	488.10796390649	322
0	3922	488.10796390649	322
0	3922	488.10796390649	322
0	3937	489.229558837955	323
0	3937	489.229558837955	323
0	3937	489.229558837955	323
0	3939	490.943246935151	324
0	3939	490.943246935151	324
0	3939	490.943246935151	324
0	3957	492.567217362003	325
0	3957	492.567217362003	325
0	3957	492.567217362003	325
0	3975	493.783355307888	326
0	3975	493.783355307888	326
0	3975	493.783355307888	326
0	3993	494.804477476405	327
0	3993	494.804477476405	327
0	3993	494.804477476405	327
0	4011	496.766649974866	328
0	4011	496.766649974866	328
0	4011	496.766649974866	328
0	4019	498.220837224864	329
0	4019	498.220837224864	329
0	4019	498.220837224864	329
0	4021	499.628650186241	330
0	4021	499.628650186241	330
0	4021	499.628650186241	330
0	4039	501.458651963046	331
0	4039	501.458651963046	331
0	4039	501.458651963046	331
0	4057	502.686266747892	332
0	4057	502.686266747892	332
0	4057	502.686266747892	332
0	4075	503.922748237506	333
0	4075	503.922748237506	333
0	4075	503.922748237506	333
0	4093	505.364592040547	334
0	4093	505.364592040547	334
0	4093	505.364592040547	334
0	4109	506.554935480126	335
0	4109	506.554935480126	335
0	4109	506.554935480126	335
0	4127	507.734688132194	336
0	4127	507.734688132194	336
0	4127	507.734688132194	336
0	4145	509.560400363415	337
0	4145	509.560400363415	337
0	4145	509.560400363415	337
0	4163	510.836804581698	338
0	4163	510.836804581698	338
0	4163	510.836804581698	338
0	4181	512.805734617295	339
0	4181	512.805734617295	339
0	4181	512.805734617295	339
0	4199	514.334035306363	340
0	4199	514.334035306363	340
0	4199	514.334035306363	340
0	4217	516.134562864792	341
0	4217	516.134562864792	341
0	4217	516.134562864792	341
0	4235	517.92694308924	342
0	4235	517.92694308924	342
0	4235	517.92694308924	342
0	4247	519.735314973057	343
0	4247	519.735314973057	343
0	4247	519.735314973057	343
0	4265	521.212049027798	344
0	4265	521.212049027798	344
0	4265	521.212049027798	344
0	4281	522.591888539153	345
0	4281	522.591888539153	345
0	4281	522.591888539153	345
0	4299	524.560896359975	346
0	4299	524.560896359975	346
0	4299	524.560896359975	346
0	4317	525.57331950719	347
0	4317	525.57331950719	347
0	4317	525.57331950719	347
0	4335	527.295142137338	348
0	4335	527.295142137338	348
0	4335	527.295142137338	348
0	4353	529.035215408201	349
0	4353	529.035215408201	349
0	4353	529.035215408201	349
0	4369	531.00884486957	350
0	4369	531.00884486957	350
0	4369	531.00884486957	350
0	4387	532.935953621878	351
0	4387	532.935953621878	351
0	4387	532.935953621878	351
0	4399	533.976631100881	352
0	4399	533.976631100881	352
0	4399	533.976631100881	352
0	4417	535.041428587525	353
0	4417	535.041428587525	353