version 3
run General-2-20231019-20:11:41-68151
attr configname General
attr datetime 20231019-20:11:41
attr datetimef 20231019-201141
attr experiment General
attr inifile omnetpp.ini
attr iterationvars ""
attr iterationvarsd ""
attr iterationvarsf ""
attr measurement ""
attr network Reliability
attr processid 68151
attr repetition 2
attr replication #2
attr resultdir results
attr runnumber 2
attr seedset 2
config network Reliability
config Reliability.node[*].transmissionTime "uniform(1s, 2s)"
config Reliability.node[*].delayTime "uniform(0.01s, 0.2s)"
config Reliability.node[*].lossProbability 0.3
config record-eventlog true
config sim-time-limit 1000s
config repeat 5

vector 0 Reliability.node[0] txVector ETV
vector 1 Reliability.node[1] txVector ETV
vector 2 Reliability.node[1] rxVector ETV
vector 3 Reliability.node[3] txVector ETV
vector 4 Reliability.node[3] rxVector ETV
vector 5 Reliability.node[0] rxVector ETV
vector 6 Reliability.node[5] txVector ETV
vector 7 Reliability.node[5] rxVector ETV
vector 8 Reliability.node[4] txVector ETV
vector 9 Reliability.node[4] rxVector ETV
vector 10 Reliability.node[2] txVector ETV
vector 11 Reliability.node[2] rxVector ETV
vector 12 Reliability.node[6] rxVector ETV
vector 13 Reliability.node[6] e2eVector ETV
0	1	0.092839031499	1
0	1	0.092839031499	1
0	1	0.092839031499	1
0	19	1.118765259413	2
0	19	1.118765259413	2
0	19	1.118765259413	2
0	21	2.295749883186	3
0	21	2.295749883186	3
0	21	2.295749883186	3
0	23	3.800995972026	4
0	23	3.800995972026	4
0	23	3.800995972026	4
0	41	5.088864791924	5
0	41	5.088864791924	5
0	41	5.088864791924	5
0	59	6.789617135441	6
0	59	6.789617135441	6
0	59	6.789617135441	6
0	61	8.221154905409	7
0	61	8.221154905409	7
0	61	8.221154905409	7
0	79	10.215006915871	8
0	79	10.215006915871	8
0	79	10.215006915871	8
0	97	11.220551336901	9
0	97	11.220551336901	9
0	97	11.220551336901	9
0	115	12.878063720669	10
0	115	12.878063720669	10
0	115	12.878063720669	10
0	133	14.773209459399	11
0	133	14.773209459399	11
0	133	14.773209459399	11
0	135	16.068381765177	12
0	135	16.068381765177	12
0	135	16.068381765177	12
0	137	17.583240932337	13
0	137	17.583240932337	13
0	137	17.583240932337	13
0	155	18.866996738379	14
0	155	18.866996738379	14
0	155	18.866996738379	14
0	170	20.412869441574	15
0	170	20.412869441574	15
0	170	20.412869441574	15
0	188	21.703296187352	16
0	188	21.703296187352	16
0	188	21.703296187352	16
0	199	23.383323441511	17
0	199	23.383323441511	17
0	199	23.383323441511	17
0	217	24.485461391527	18
0	217	24.485461391527	18
0	217	24.485461391527	18
0	235	26.152788558528	19
0	235	26.152788558528	19
0	235	26.152788558528	19
0	253	27.587872207882	20
0	253	27.587872207882	20
0	253	27.587872207882	20
0	255	29.332910468355	21
0	255	29.332910468355	21
0	255	29.332910468355	21
0	271	31.025309711248	22
0	271	31.025309711248	22
0	271	31.025309711248	22
0	273	32.743244528324	23
0	273	32.743244528324	23
0	273	32.743244528324	23
0	291	34.458975117906	24
0	291	34.458975117906	24
0	291	34.458975117906	24
0	304	36.429522871059	25
0	304	36.429522871059	25
0	304	36.429522871059	25
0	312	37.956161295549	26
0	312	37.956161295549	26
0	312	37.956161295549	26
0	314	39.900820172877	27
0	314	39.900820172877	27
0	314	39.900820172877	27
0	332	41.273713056949	28
0	332	41.273713056949	28
0	332	41.273713056949	28
0	348	42.492500003214	29
0	348	42.492500003214	29
0	348	42.492500003214	29
0	350	43.562160599531	30
0	350	43.562160599531	30
0	350	43.562160599531	30
0	352	45.166301436975	31
0	352	45.166301436975	31
0	352	45.166301436975	31
0	370	46.630513782167	32
0	370	46.630513782167	32
0	370	46.630513782167	32
0	388	47.682407934238	33
0	388	47.682407934238	33
0	388	47.682407934238	33
0	394	49.586254097308	34
0	394	49.586254097308	34
0	394	49.586254097308	34
0	410	51.493313529781	35
0	410	51.493313529781	35
0	410	51.493313529781	35
0	428	52.758757001973	36
0	428	52.758757001973	36
0	428	52.758757001973	36
0	430	54.75807391761	37
0	430	54.75807391761	37
0	430	54.75807391761	37
0	448	56.506258945699	38
0	448	56.506258945699	38
0	448	56.506258945699	38
0	466	58.50582872077	39
0	466	58.50582872077	39
0	466	58.50582872077	39
0	484	59.981817465295	40
0	484	59.981817465295	40
0	484	59.981817465295	40
0	502	61.804619032909	41
0	502	61.804619032909	41
0	502	61.804619032909	41
0	520	63.44118244622	42
0	520	63.44118244622	42
0	520	63.44118244622	42
0	522	64.773955525617	43
0	522	64.773955525617	43
0	522	64.773955525617	43
0	540	65.977831609799	44
0	540	65.977831609799	44
0	540	65.977831609799	44
0	548	67.927427090025	45
0	548	67.927427090025	45
0	548	67.927427090025	45
0	563	69.739944785852	46
0	563	69.739944785852	46
0	563	69.739944785852	46
0	565	71.218890598994	47
0	565	71.218890598994	47
0	565	71.218890598994	47
0	567	72.714152763151	48
0	567	72.714152763151	48
0	567	72.714152763151	48
0	575	74.487042468526	49
0	575	74.487042468526	49
0	575	74.487042468526	49
0	593	75.914419933241	50
0	593	75.914419933241	50
0	593	75.914419933241	50
0	609	77.404163787393	51
0	609	77.404163787393	51
0	609	77.404163787393	51
0	611	79.393391421316	52
0	611	79.393391421316	52
0	611	79.393391421316	52
0	629	81.002302263649	53
0	629	81.002302263649	53
0	629	81.002302263649	53
0	647	82.336445245212	54
0	647	82.336445245212	54
0	647	82.336445245212	54
0	665	84.224109025691	55
0	665	84.224109025691	55
0	665	84.224109025691	55
0	667	85.666394081917	56
0	667	85.666394081917	56
0	667	85.666394081917	56
0	685	87.570147465933	57
0	685	87.570147465933	57
0	685	87.570147465933	57
0	687	89.040862190323	58
0	687	89.040862190323	58
0	687	89.040862190323	58
0	689	90.042924431637	59
0	689	90.042924431637	59
0	689	90.042924431637	59
0	707	91.898467409676	60
0	707	91.898467409676	60
0	707	91.898467409676	60
0	725	93.382657508152	61
0	725	93.382657508152	61
0	725	93.382657508152	61
0	727	94.79968402816	62
0	727	94.79968402816	62
0	727	94.79968402816	62
0	733	96.168676070189	63
0	733	96.168676070189	63
0	733	96.168676070189	63
0	751	97.647684320826	64
0	751	97.647684320826	64
0	751	97.647684320826	64
0	753	99.232099520527	65
0	753	99.232099520527	65
0	753	99.232099520527	65
0	771	100.831499594981	66
0	771	100.831499594981	66
0	771	100.831499594981	66
0	789	102.261207021093	67
0	789	102.261207021093	67
0	789	102.261207021093	67
0	805	104.202663505236	68
0	805	104.202663505236	68
0	805	104.202663505236	68
0	823	105.661418703636	69
0	823	105.661418703636	69
0	823	105.661418703636	69
0	832	107.107655925462	70
0	832	107.107655925462	70
0	832	107.107655925462	70
0	850	108.59088000983	71
0	850	108.59088000983	71
0	850	108.59088000983	71
0	868	109.645174495894	72
0	868	109.645174495894	72
0	868	109.645174495894	72
0	886	110.964073937637	73
0	886	110.964073937637	73
0	886	110.964073937637	73
0	904	112.509613415477	74
0	904	112.509613415477	74
0	904	112.509613415477	74
0	906	113.759072516364	75
0	906	113.759072516364	75
0	906	113.759072516364	75
0	922	115.002254989481	76
0	922	115.002254989481	76
0	922	115.002254989481	76
0	924	116.733433316712	77
0	924	116.733433316712	77
0	924	116.733433316712	77
0	926	118.185120014491	78
0	926	118.185120014491	78
0	926	118.185120014491	78
0	944	120.169066102494	79
0	944	120.169066102494	79
0	944	120.169066102494	79
0	960	121.893009552516	80
0	960	121.893009552516	80
0	960	121.893009552516	80
0	962	123.484614892879	81
0	962	123.484614892879	81
0	962	123.484614892879	81
0	980	125.456648370034	82
0	980	125.456648370034	82
0	980	125.456648370034	82
0	998	127.087249767051	83
0	998	127.087249767051	83
0	998	127.087249767051	83
0	1000	128.990504737959	84
0	1000	128.990504737959	84
0	1000	128.990504737959	84
0	1002	130.424952235088	85
0	1002	130.424952235088	85
0	1002	130.424952235088	85
0	1004	131.556133931751	86
0	1004	131.556133931751	86
0	1004	131.556133931751	86
0	1006	132.798689047123	87
0	1006	132.798689047123	87
0	1006	132.798689047123	87
0	1008	134.177025728409	88
0	1008	134.177025728409	88
0	1008	134.177025728409	88
0	1023	135.755498198575	89
0	1023	135.755498198575	89
0	1023	135.755498198575	89
0	1025	137.324909643984	90
0	1025	137.324909643984	90
0	1025	137.324909643984	90
0	1027	138.666494813996	91
0	1027	138.666494813996	91
0	1027	138.666494813996	91
0	1045	139.846574741431	92
0	1045	139.846574741431	92
0	1045	139.846574741431	92
0	1060	141.630391025931	93
0	1060	141.630391025931	93
0	1060	141.630391025931	93
0	1076	142.775546654376	94
0	1076	142.775546654376	94
0	1076	142.775546654376	94
0	1094	144.12219149714	95
0	1094	144.12219149714	95
0	1094	144.12219149714	95
0	1096	145.313051953927	96
0	1096	145.313051953927	96
0	1096	145.313051953927	96
0	1114	147.175840060242	97
0	1114	147.175840060242	97
0	1114	147.175840060242	97
0	1127	148.65241857899	98
0	1127	148.65241857899	98
0	1127	148.65241857899	98
0	1145	150.528076063391	99
0	1145	150.528076063391	99
0	1145	150.528076063391	99
0	1163	151.730836951422	100
0	1163	151.730836951422	100
0	1163	151.730836951422	100
0	1181	152.8418593791	101
0	1181	152.8418593791	101
0	1181	152.8418593791	101
0	1196	154.281066574404	102
0	1196	154.281066574404	102
0	1196	154.281066574404	102
0	1198	156.246047106819	103
0	1198	156.246047106819	103
0	1198	156.246047106819	103
0	1216	158.030609885013	104
0	1216	158.030609885013	104
0	1216	158.030609885013	104
0	1234	159.853246296771	105
0	1234	159.853246296771	105
0	1234	159.853246296771	105
0	1236	161.354006045047	106
0	1236	161.354006045047	106
0	1236	161.354006045047	106
0	1238	163.198608510444	107
0	1238	163.198608510444	107
0	1238	163.198608510444	107
0	1240	164.287050478641	108
0	1240	164.287050478641	108
0	1240	164.287050478641	108
0	1258	165.356211052524	109
0	1258	165.356211052524	109
0	1258	165.356211052524	109
0	1276	166.670929131579	110
0	1276	166.670929131579	110
0	1276	166.670929131579	110
0	1278	167.705497988049	111
0	1278	167.705497988049	111
0	1278	167.705497988049	111
0	1280	168.924776158311	112
0	1280	168.924776158311	112
0	1280	168.924776158311	112
0	1298	170.734075039408	113
0	1298	170.734075039408	113
0	1298	170.734075039408	113
0	1316	172.337440731951	114
0	1316	172.337440731951	114
0	1316	172.337440731951	114
0	1318	173.611958843905	115
0	1318	173.611958843905	115
0	1318	173.611958843905	115
0	1334	174.72778775661	116
0	1334	174.72778775661	116
0	1334	174.72778775661	116
0	1352	176.523586327459	117
0	1352	176.523586327459	117
0	1352	176.523586327459	117
0	1370	177.606954319884	118
0	1370	177.606954319884	118
0	1370	177.606954319884	118
0	1376	178.740787571778	119
0	1376	178.740787571778	119
0	1376	178.740787571778	119
0	1378	180.446926044316	120
0	1378	180.446926044316	120
0	1378	180.446926044316	120
0	1396	181.716688417845	121
0	1396	181.716688417845	121
0	1396	181.716688417845	121
0	1414	183.599817770316	122
0	1414	183.599817770316	122
0	1414	183.599817770316	122
0	1416	184.939960124685	123
0	1416	184.939960124685	123
0	1416	184.939960124685	123
0	1418	186.246305016583	124
0	1418	186.246305016583	124
0	1418	186.246305016583	124
0	1436	187.917286272874	125
0	1436	187.917286272874	125
0	1436	187.917286272874	125
0	1448	189.156555665206	126
0	1448	189.156555665206	126
0	1448	189.156555665206	126
0	1463	190.91456402863	127
0	1463	190.91456402863	127
0	1463	190.91456402863	127
0	1465	191.924387218911	128
0	1465	191.924387218911	128
0	1465	191.924387218911	128
0	1483	193.118106553113	129
0	1483	193.118106553113	129
0	1483	193.118106553113	129
0	1501	194.155325662127	130
0	1501	194.155325662127	130
0	1501	194.155325662127	130
0	1503	196.000362298932	131
0	1503	196.000362298932	131
0	1503	196.000362298932	131
0	1521	197.19300864359	132
0	1521	197.19300864359	132
0	1521	197.19300864359	132
0	1539	198.21485633195	133
0	1539	198.21485633195	133
0	1539	198.21485633195	133
0	1541	200.095608051415	134
0	1541	200.095608051415	134
0	1541	200.095608051415	134
0	1559	201.212079310804	135
0	1559	201.212079310804	135
0	1559	201.212079310804	135
0	1577	203.031017852496	136
0	1577	203.031017852496	136
0	1577	203.031017852496	136
0	1595	204.523308444317	137
0	1595	204.523308444317	137
0	1595	204.523308444317	137
0	1613	205.575131690144	138
0	1613	205.575131690144	138
0	1613	205.575131690144	138
0	1615	207.097263160409	139
0	1615	207.097263160409	139
0	1615	207.097263160409	139
0	1617	208.559248458143	140
0	1617	208.559248458143	140
0	1617	208.559248458143	140
0	1619	210.12469259325	141
0	1619	210.12469259325	141
0	1619	210.12469259325	141
0	1637	211.975883696476	142
0	1637	211.975883696476	142
0	1637	211.975883696476	142
0	1639	213.900536501097	143
0	1639	213.900536501097	143
0	1639	213.900536501097	143
0	1641	215.713067412625	144
0	1641	215.713067412625	144
0	1641	215.713067412625	144
0	1643	217.354744695376	145
0	1643	217.354744695376	145
0	1643	217.354744695376	145
0	1661	218.937820241803	146
0	1661	218.937820241803	146
0	1661	218.937820241803	146
0	1679	220.097960028348	147
0	1679	220.097960028348	147
0	1679	220.097960028348	147
0	1697	221.341291224367	148
0	1697	221.341291224367	148
0	1697	221.341291224367	148
0	1715	223.217231855976	149
0	1715	223.217231855976	149
0	1715	223.217231855976	149
0	1733	224.736966093086	150
0	1733	224.736966093086	150
0	1733	224.736966093086	150
0	1751	226.174518374974	151
0	1751	226.174518374974	151
0	1751	226.174518374974	151
0	1753	228.114189971486	152
0	1753	228.114189971486	152
0	1753	228.114189971486	152
0	1755	229.298767336426	153
0	1755	229.298767336426	153
0	1755	229.298767336426	153
0	1773	230.425882413765	154
0	1773	230.425882413765	154
0	1773	230.425882413765	154
0	1781	232.082967509297	155
0	1781	232.082967509297	155
0	1781	232.082967509297	155
0	1799	233.856824889561	156
0	1799	233.856824889561	156
0	1799	233.856824889561	156
0	1801	235.838286469705	157
0	1801	235.838286469705	157
0	1801	235.838286469705	157
0	1819	237.169959797771	158
0	1819	237.169959797771	158
0	1819	237.169959797771	158
0	1837	238.620680318927	159
0	1837	238.620680318927	159
0	1837	238.620680318927	159
0	1855	240.220943891691	160
0	1855	240.220943891691	160
0	1855	240.220943891691	160
0	1871	241.932478599964	161
0	1871	241.932478599964	161
0	1871	241.932478599964	161
0	1873	243.46537057731	162
0	1873	243.46537057731	162
0	1873	243.46537057731	162
0	1875	245.266692328981	163
0	1875	245.266692328981	163
0	1875	245.266692328981	163
0	1891	246.297050950366	164
0	1891	246.297050950366	164
0	1891	246.297050950366	164
0	1906	247.70523696115	165
0	1906	247.70523696115	165
0	1906	247.70523696115	165
0	1924	249.089493478897	166
0	1924	249.089493478897	166
0	1924	249.089493478897	166
0	1926	250.560527716779	167
0	1926	250.560527716779	167
0	1926	250.560527716779	167
0	1944	251.756146230285	168
0	1944	251.756146230285	168
0	1944	251.756146230285	168
0	1962	253.31832596475	169
0	1962	253.31832596475	169
0	1962	253.31832596475	169
0	1971	254.845614247739	170
0	1971	254.845614247739	170
0	1971	254.845614247739	170
0	1977	256.585180956654	171
0	1977	256.585180956654	171
0	1977	256.585180956654	171
0	1990	258.275722788198	172
0	1990	258.275722788198	172
0	1990	258.275722788198	172
0	2008	259.706674098287	173
0	2008	259.706674098287	173
0	2008	259.706674098287	173
0	2010	260.912517061707	174
0	2010	260.912517061707	174
0	2010	260.912517061707	174
0	2012	262.0109129816	175
0	2012	262.0109129816	175
0	2012	262.0109129816	175
0	2030	263.714631368423	176
0	2030	263.714631368423	176
0	2030	263.714631368423	176
0	2045	264.910107514372	177
0	2045	264.910107514372	177
0	2045	264.910107514372	177
0	2063	266.543864235997	178
0	2063	266.543864235997	178
0	2063	266.543864235997	178
0	2081	268.078382211521	179
0	2081	268.078382211521	179
0	2081	268.078382211521	179
0	2099	269.182788604654	180
0	2099	269.182788604654	180
0	2099	269.182788604654	180
0	2101	270.195102840213	181
0	2101	270.195102840213	181
0	2101	270.195102840213	181
0	2119	271.448026371671	182
0	2119	271.448026371671	182
0	2119	271.448026371671	182
0	2134	272.837840371316	183
0	2134	272.837840371316	183
0	2134	272.837840371316	183
0	2152	273.980112627631	184
0	2152	273.980112627631	184
0	2152	273.980112627631	184
0	2154	275.73955394143	185
0	2154	275.73955394143	185
0	2154	275.73955394143	185
0	2169	276.746671469433	186
0	2169	276.746671469433	186
0	2169	276.746671469433	186
0	2171	277.859176029701	187
0	2171	277.859176029701	187
0	2171	277.859176029701	187
0	2173	278.997354794776	188
0	2173	278.997354794776	188
0	2173	278.997354794776	188
0	2191	280.717294712102	189
0	2191	280.717294712102	189
0	2191	280.717294712102	189
0	2209	282.668563968053	190
0	2209	282.668563968053	190
0	2209	282.668563968053	190
0	2211	283.719731384905	191
0	2211	283.719731384905	191
0	2211	283.719731384905	191
0	2229	285.322425209934	192
0	2229	285.322425209934	192
0	2229	285.322425209934	192
0	2231	286.393581057916	193
0	2231	286.393581057916	193
0	2231	286.393581057916	193
0	2249	287.574158647348	194
0	2249	287.574158647348	194
0	2249	287.574158647348	194
0	2267	288.95166078817	195
0	2267	288.95166078817	195
0	2267	288.95166078817	195
0	2275	290.485624060984	196
0	2275	290.485624060984	196
0	2275	290.485624060984	196
0	2293	291.929265231378	197
0	2293	291.929265231378	197
0	2293	291.929265231378	197
0	2311	293.396617827024	198
0	2311	293.396617827024	198
0	2311	293.396617827024	198
0	2313	295.169882994396	199
0	2313	295.169882994396	199
0	2313	295.169882994396	199
0	2325	296.894047268219	200
0	2325	296.894047268219	200
0	2325	296.894047268219	200
0	2343	298.300540177403	201
0	2343	298.300540177403	201
0	2343	298.300540177403	201
0	2345	300.030611447077	202
0	2345	300.030611447077	202
0	2345	300.030611447077	202
0	2360	301.848533726083	203
0	2360	301.848533726083	203
0	2360	301.848533726083	203
0	2378	303.036366979843	204
0	2378	303.036366979843	204
0	2378	303.036366979843	204
0	2396	304.331674096193	205
0	2396	304.331674096193	205
0	2396	304.331674096193	205
0	2414	306.201890835324	206
0	2414	306.201890835324	206
0	2414	306.201890835324	206
0	2416	307.712916942099	207
0	2416	307.712916942099	207
0	2416	307.712916942099	207
0	2434	309.539690254042	208
0	2434	309.539690254042	208
0	2434	309.539690254042	208
0	2436	310.621221565195	209
0	2436	310.621221565195	209
0	2436	310.621221565195	209
0	2438	311.750264133812	210
0	2438	311.750264133812	210
0	2438	311.750264133812	210
0	2440	313.407004554543	211
0	2440	313.407004554543	211
0	2440	313.407004554543	211
0	2442	315.290730162078	212
0	2442	315.290730162078	212
0	2442	315.290730162078	212
0	2460	316.731456113301	213
0	2460	316.731456113301	213
0	2460	316.731456113301	213
0	2478	318.257618304828	214
0	2478	318.257618304828	214
0	2478	318.257618304828	214
0	2496	319.916943676092	215
0	2496	319.916943676092	215
0	2496	319.916943676092	215
0	2514	321.874404637164	216
0	2514	321.874404637164	216
0	2514	321.874404637164	216
0	2516	323.642293902834	217
0	2516	323.642293902834	217
0	2516	323.642293902834	217
0	2534	324.720356260215	218
0	2534	324.720356260215	218
0	2534	324.720356260215	218
0	2552	325.798258213581	219
0	2552	325.798258213581	219
0	2552	325.798258213581	219
0	2570	327.409850415563	220
0	2570	327.409850415563	220
0	2570	327.409850415563	220
0	2588	329.39453146865	221
0	2588	329.39453146865	221
0	2588	329.39453146865	221
0	2590	330.951848814752	222
0	2590	330.951848814752	222
0	2590	330.951848814752	222
0	2608	332.435611546528	223
0	2608	332.435611546528	223
0	2608	332.435611546528	223
0	2610	334.175695901061	224
0	2610	334.175695901061	224
0	2610	334.175695901061	224
0	2612	335.348122948338	225
0	2612	335.348122948338	225
0	2612	335.348122948338	225
0	2614	336.410804842389	226
0	2614	336.410804842389	226
0	2614	336.410804842389	226
0	2630	338.378760535526	227
0	2630	338.378760535526	227
0	2630	338.378760535526	227
0	2648	340.244169447594	228
0	2648	340.244169447594	228
0	2648	340.244169447594	228
0	2666	341.258427292364	229
0	2666	341.258427292364	229
0	2666	341.258427292364	229
0	2668	342.831446612276	230
0	2668	342.831446612276	230
0	2668	342.831446612276	230
0	2684	343.962785860779	231
0	2684	343.962785860779	231
0	2684	343.962785860779	231
0	2702	345.679818772966	232
0	2702	345.679818772966	232
0	2702	345.679818772966	232
0	2720	346.982087217061	233
0	2720	346.982087217061	233
0	2720	346.982087217061	233
0	2738	348.658424534857	234
0	2738	348.658424534857	234
0	2738	348.658424534857	234
0	2754	350.011061390185	235
0	2754	350.011061390185	235
0	2754	350.011061390185	235
0	2772	351.666877261617	236
0	2772	351.666877261617	236
0	2772	351.666877261617	236
0	2790	353.148595495404	237
0	2790	353.148595495404	237
0	2790	353.148595495404	237
0	2808	354.516372682316	238
0	2808	354.516372682316	238
0	2808	354.516372682316	238
0	2826	356.251502916006	239
0	2826	356.251502916006	239
0	2826	356.251502916006	239
0	2844	357.284508080244	240
0	2844	357.284508080244	240
0	2844	357.284508080244	240
0	2862	358.30213505288	241
0	2862	358.30213505288	241
0	2862	358.30213505288	241
0	2864	359.657822228525	242
0	2864	359.657822228525	242
0	2864	359.657822228525	242
0	2882	361.568461599782	243
0	2882	361.568461599782	243
0	2882	361.568461599782	243
0	2897	363.471586312422	244
0	2897	363.471586312422	244
0	2897	363.471586312422	244
0	2899	364.79871519564	245
0	2899	364.79871519564	245
0	2899	364.79871519564	245
0	2917	366.682715312366	246
0	2917	366.682715312366	246
0	2917	366.682715312366	246
0	2933	367.786756706212	247
0	2933	367.786756706212	247
0	2933	367.786756706212	247
0	2951	369.153948512182	248
0	2951	369.153948512182	248
0	2951	369.153948512182	248
0	2969	370.59338158767	249
0	2969	370.59338158767	249
0	2969	370.59338158767	249
0	2987	372.168159824584	250
0	2987	372.168159824584	250
0	2987	372.168159824584	250
0	2989	374.012213823174	251
0	2989	374.012213823174	251
0	2989	374.012213823174	251
0	3007	375.587426660604	252
0	3007	375.587426660604	252
0	3007	375.587426660604	252
0	3009	376.794997900047	253
0	3009	376.794997900047	253
0	3009	376.794997900047	253
0	3027	378.582515120527	254
0	3027	378.582515120527	254
0	3027	378.582515120527	254
0	3029	380.160532921108	255
0	3029	380.160532921108	255
0	3029	380.160532921108	255
0	3047	382.038653600051	256
0	3047	382.038653600051	256
0	3047	382.038653600051	256
0	3065	383.431375563632	257
0	3065	383.431375563632	257
0	3065	383.431375563632	257
0	3067	385.30829969819	258
0	3067	385.30829969819	258
0	3067	385.30829969819	258
0	3069	386.505997485037	259
0	3069	386.505997485037	259
0	3069	386.505997485037	259
0	3087	388.237872948426	260
0	3087	388.237872948426	260
0	3087	388.237872948426	260
0	3105	389.61706424041	261
0	3105	389.61706424041	261
0	3105	389.61706424041	261
0	3123	390.710428650745	262
0	3123	390.710428650745	262
0	3123	390.710428650745	262
0	3125	392.364954361946	263
0	3125	392.364954361946	263
0	3125	392.364954361946	263
0	3143	394.037611678729	264
0	3143	394.037611678729	264
0	3143	394.037611678729	264
0	3145	395.622824089157	265
0	3145	395.622824089157	265
0	3145	395.622824089157	265
0	3147	396.853647569681	266
0	3147	396.853647569681	266
0	3147	396.853647569681	266
0	3149	398.001231967725	267
0	3149	398.001231967725	267
0	3149	398.001231967725	267
0	3167	399.840294480344	268
0	3167	399.840294480344	268
0	3167	399.840294480344	268
0	3185	400.973672788378	269
0	3185	400.973672788378	269
0	3185	400.973672788378	269
0	3203	402.344706823371	270
0	3203	402.344706823371	270
0	3203	402.344706823371	270
0	3205	403.57530440299	271
0	3205	403.57530440299	271
0	3205	403.57530440299	271
0	3223	405.212546972811	272
0	3223	405.212546972811	272
0	3223	405.212546972811	272
0	3241	406.833792660871	273
0	3241	406.833792660871	273
0	3241	406.833792660871	273
0	3256	408.490043460644	274
0	3256	408.490043460644	274
0	3256	408.490043460644	274
0	3274	409.691106612115	275
0	3274	409.691106612115	275
0	3274	409.691106612115	275
0	3276	411.546130129854	276
0	3276	411.546130129854	276
0	3276	411.546130129854	276
0	3291	412.546933100811	277
0	3291	412.546933100811	277
0	3291	412.546933100811	277
0	3293	413.751076529986	278
0	3293	413.751076529986	278
0	3293	413.751076529986	278
0	3311	415.067633142016	279
0	3311	415.067633142016	279
0	3311	415.067633142016	279
0	3313	416.704084050396	280
0	3313	416.704084050396	280
0	3313	416.704084050396	280
0	3331	418.243925028035	281
0	3331	418.243925028035	281
0	3331	418.243925028035	281
0	3346	420.027121267534	282
0	3346	420.027121267534	282
0	3346	420.027121267534	282
0	3348	421.694785634541	283
0	3348	421.694785634541	283
0	3348	421.694785634541	283
0	3366	423.259456084828	284
0	3366	423.259456084828	284
0	3366	423.259456084828	284
0	3368	424.437547796193	285
0	3368	424.437547796193	285
0	3368	424.437547796193	285
0	3386	425.787326667478	286
0	3386	425.787326667478	286
0	3386	425.787326667478	286
0	3401	427.609381502747	287
0	3401	427.609381502747	287
0	3401	427.609381502747	287
0	3403	428.763760794207	288
0	3403	428.763760794207	288
0	3403	428.763760794207	288
0	3418	430.355466606348	289
0	3418	430.355466606348	289
0	3418	430.355466606348	289
0	3436	431.911770670694	290
0	3436	431.911770670694	290
0	3436	431.911770670694	290
0	3442	432.930726517011	291
0	3442	432.930726517011	291
0	3442	432.930726517011	291
0	3460	434.735933638663	292
0	3460	434.735933638663	292
0	3460	434.735933638663	292
0	3476	436.231255299431	293
0	3476	436.231255299431	293
0	3476	436.231255299431	293
0	3494	437.327495008028	294
0	3494	437.327495008028	294
0	3494	437.327495008028	294
0	3496	438.496456719722	295
0	3496	438.496456719722	295
0	3496	438.496456719722	295
0	3502	440.094193771501	296
0	3502	440.094193771501	296
0	3502	440.094193771501	296
0	3520	441.281439804259	297
0	3520	441.281439804259	297
0	3520	441.281439804259	297
0	3538	443.169833363286	298
0	3538	443.169833363286	298
0	3538	443.169833363286	298
0	3554	445.068662791765	299
0	3554	445.068662791765	299
0	3554	445.068662791765	299
0	3572	446.682801121399	300
0	3572	446.682801121399	300
0	3572	446.682801121399	300
0	3590	448.570008924948	301
0	3590	448.570008924948	301
0	3590	448.570008924948	301
0	3608	450.49983676292	302
0	3608	450.49983676292	302
0	3608	450.49983676292	302
0	3610	452.182606477309	303
0	3610	452.182606477309	303
0	3610	452.182606477309	303
0	3612	453.545981835127	304
0	3612	453.545981835127	304
0	3612	453.545981835127	304
0	3630	455.524502586126	305
0	3630	455.524502586126	305
0	3630	455.524502586126	305
0	3648	456.828329094937	306
0	3648	456.828329094937	306
0	3648	456.828329094937	306
0	3666	458.58558736301	307
0	3666	458.58558736301	307
0	3666	458.58558736301	307
0	3681	459.753994032526	308
0	3681	459.753994032526	308
0	3681	459.753994032526	308
0	3699	461.162213966734	309
0	3699	461.162213966734	309
0	3699	461.162213966734	309
0	3717	462.520393356	310
0	3717	462.520393356	310
0	3717	462.520393356	310
0	3735	463.545327233634	311
0	3735	463.545327233634	311
0	3735	463.545327233634	311
0	3753	465.364767768205	312
0	3753	465.364767768205	312
0	3753	465.364767768205	312
0	3755	466.792433122423	313
0	3755	466.792433122423	313
0	3755	466.792433122423	313
0	3773	468.612474814773	314
0	3773	468.612474814773	314
0	3773	468.612474814773	314
0	3791	470.00133865049	315
0	3791	470.00133865049	315
0	3791	470.00133865049	315
0	3793	471.434780505038	316
0	3793	471.434780505038	316
0	3793	471.434780505038	316
0	3811	473.214136307146	317
0	3811	473.214136307146	317
0	3811	473.214136307146	317
0	3813	474.885332938069	318
0	3813	474.885332938069	318
0	3813	474.885332938069	318
0	3831	476.45163742152	319
0	3831	476.45163742152	319
0	3831	476.45163742152	319
0	3833	477.75320302464	320
0	3833	477.75320302464	320
0	3833	477.75320302464	320
0	3835	478.825863895956	321
0	3835	478.825863895956	321
0	3835	478.825863895956	321
0	3850	480.671572019597	322
0	3850	480.671572019597	322
0	3850	480.671572019597	322
0	3852	482.031400552969	323
0	3852	482.031400552969	323
0	3852	482.031400552969	323
0	3870	483.866526343878	324
0	3870	483.866526343878	324
0	3870	483.866526343878	324
0	3888	484.893607171038	325
0	3888	484.893607171038	325
0	3888	484.893607171038	325
0	3900	486.816603047559	326
0	3900	486.816603047559	326
0	3900	486.816603047559	326
0	3902	487.845341685014	327
0	3902	487.845341685014	327
0	3902	487.845341685014	327
0	3920	489.702289596219	328
0	3920	489.702289596219	328
0	3920	489.702289596219	328
0	3922	490.875768815652	329
0	3922	490.875768815652	329
0	3922	490.875768815652	329
0	3924	492.731565516461	330
0	3924	492.731565516461	330
0	3924	492.731565516461	330
0	3926	494.157575644572	331
0	3926	494.157575644572	331
0	3926	494.157575644572	331
0	3928	495.727049649247	332
0	3928	495.727049649247	332
0	3928	495.727049649247	332
0	3930	497.709078920559	333
0	3930	497.709078920559	333
0	3930	497.709078920559	333
0	3948	499.448513694826	334
0	3948	499.448513694826	334
0	3948	499.448513694826	334
0	3966	501.0914912075	335
0	3966	501.0914912075	335
0	3966	501.0914912075	335
0	3968	502.572668283732	336
0	3968	502.572668283732	336
0	3968	502.572668283732	336
0	3970	504.217721315586	337
0	3970	504.217721315586	337
0	3970	504.217721315586	337
0	3988	505.599515171043	338
0	3988	505.599515171043	338
0	3988	505.599515171043	338
0	4006	507.294577279381	339
0	4006	507.294577279381	339
0	4006	507.294577279381	339
0	4024	508.579816243631	340
0	4024	508.579816243631	340
0	4024	508.579816243631	340
0	4042	510.209591928424	341
0	4042	510.209591928424	341
0	4042	510.209591928424	341
0	4057	511.295522569466	342
0	4057	511.295522569466	342
0	4057	511.295522569466	342
0	4075	512.904073100324	343
0	4075	512.904073100324	343
0	4075	512.904073100324	343
0	4077	514.757402644745	344
0	4077	514.757402644745	344
0	4077	514.757402644745	344
0	4095	515.785922290544	345
0	4095	515.785922290544	345
0	4095	515.785922290544	345
0	4097	517.594129364957	346
0	4097	517.594129364957	346
0	4097	517.594129364957	346
0	4099	519.499446495688	347
0	4099	519.499446495688	347
0	4099	519.499446495688	347
0	4117	520.673247605116	348
0	4117	520.673247605116	348
0	4117	520.673247605116	348
0	4119	522.225791878086	349
0	4119	522.225791878086	349
0	4119	522.225791878086	349
0	4132	524.127691934137	350
0	4132	524.127691934137	350
0	4132	524.127691934137	350
0	4150	525.345569719114	351
0	4150	525.345569719114	351
0	4150	525.345569719114	351
0	4152	526.974819040876	352
0	4152	526.974819040876	352
0	4152	526.974819040876	352
0	4154	528.935327645177	353
0	4154	528.935327645177	353
0	4154	528.935327645177	353