version 3
run General-3-20231019-20:11:42-68151
attr configname General
attr datetime 20231019-20:11:42
attr datetimef 20231019-201142
attr experiment General
attr inifile omnetpp.ini
attr iterationvars ""
attr iterationvarsd ""
attr iterationvarsf ""
attr measurement ""
attr network Reliability
attr processid 68151
attr repetition 3
attr replication #3
attr resultdir results
attr runnumber 3
attr seedset 3
config network Reliability
config Reliability.node[*].transmissionTime "uniform(1s, 2s)"
config Reliability.node[*].delayTime "uniform(0.01s, 0.2s)"
config Reliability.node[*].lossProbability 0.3
config record-eventlog true
config sim-time-limit 1000s
config repeat 5

vector 0 Reliability.node[0] txVector ETV
vector 1 Reliability.node[1] txVector ETV
vector 2 Reliability.node[1] rxVector ETV
vector 3 Reliability.node[2] txVector ETV
vector 4 Reliability.node[2] rxVector ETV
vector 5 Reliability.node[4] txVector ETV
vector 6 Reliability.node[4] rxVector ETV
vector 7 Reliability.node[0] rxVector ETV
vector 8 Reliability.node[5] txVector ETV
vector 9 Reliability.node[5] rxVector ETV
vector 10 Reliability.node[6] rxVector ETV
vector 11 Reliability.node[6] e2eVector ETV
vector 12 Reliability.node[3] txVector ETV
vector 13 Reliability.node[3] rxVector ETV
0	1	0.114651601831	1
0	1	0.114651601831	1
0	1	0.114651601831	1
0	9	1.822799424012	2
0	9	1.822799424012	2
0	9	1.822799424012	2
0	27	2.91635091959	3
0	27	2.91635091959	3
0	27	2.91635091959	3
0	29	4.222714451211	4
0	29	4.222714451211	4
0	29	4.222714451211	4
0	47	6.115779557568	5
0	47	6.115779557568	5
0	47	6.115779557568	5
0	65	7.976313469303	6
0	65	7.976313469303	6
0	65	7.976313469303	6
0	81	9.516433070717	7
0	81	9.516433070717	7
0	81	9.516433070717	7
0	87	10.668294063374	8
0	87	10.668294063374	8
0	87	10.668294063374	8
0	105	12.333918670961	9
0	105	12.333918670961	9
0	105	12.333918670961	9
0	107	14.059588295478	10
0	107	14.059588295478	10
0	107	14.059588295478	10
0	125	16.017924529105	11
0	125	16.017924529105	11
0	125	16.017924529105	11
0	127	17.227297878662	12
0	127	17.227297878662	12
0	127	17.227297878662	12
0	145	18.479039389245	13
0	145	18.479039389245	13
0	145	18.479039389245	13
0	163	19.54371258251	14
0	163	19.54371258251	14
0	163	19.54371258251	14
0	179	21.167116196198	15
0	179	21.167116196198	15
0	179	21.167116196198	15
0	181	22.446410797374	16
0	181	22.446410797374	16
0	181	22.446410797374	16
0	196	23.889998476324	17
0	196	23.889998476324	17
0	196	23.889998476324	17
0	214	25.632735749078	18
0	214	25.632735749078	18
0	214	25.632735749078	18
0	227	27.066270040418	19
0	227	27.066270040418	19
0	227	27.066270040418	19
0	229	28.067015560647	20
0	229	28.067015560647	20
0	229	28.067015560647	20
0	244	30.008929924178	21
0	244	30.008929924178	21
0	244	30.008929924178	21
0	250	31.273255450022	22
0	250	31.273255450022	22
0	250	31.273255450022	22
0	268	33.042389141465	23
0	268	33.042389141465	23
0	268	33.042389141465	23
0	282	34.870821066503	24
0	282	34.870821066503	24
0	282	34.870821066503	24
0	300	36.694054624135	25
0	300	36.694054624135	25
0	300	36.694054624135	25
0	302	38.200139888399	26
0	302	38.200139888399	26
0	302	38.200139888399	26
0	304	39.740012032748	27
0	304	39.740012032748	27
0	304	39.740012032748	27
0	322	41.502127875644	28
0	322	41.502127875644	28
0	322	41.502127875644	28
0	337	42.681128324778	29
0	337	42.681128324778	29
0	337	42.681128324778	29
0	355	44.076189114549	30
0	355	44.076189114549	30
0	355	44.076189114549	30
0	370	45.603093007882	31
0	370	45.603093007882	31
0	370	45.603093007882	31
0	372	47.138018344599	32
0	372	47.138018344599	32
0	372	47.138018344599	32
0	374	49.093462718022	33
0	374	49.093462718022	33
0	374	49.093462718022	33
0	392	50.485934632202	34
0	392	50.485934632202	34
0	392	50.485934632202	34
0	394	51.912499894458	35
0	394	51.912499894458	35
0	394	51.912499894458	35
0	412	53.204531878303	36
0	412	53.204531878303	36
0	412	53.204531878303	36
0	430	54.768353627832	37
0	430	54.768353627832	37
0	430	54.768353627832	37
0	432	56.073465013947	38
0	432	56.073465013947	38
0	432	56.073465013947	38
0	450	57.163057475654	39
0	450	57.163057475654	39
0	450	57.163057475654	39
0	468	58.768268100056	40
0	468	58.768268100056	40
0	468	58.768268100056	40
0	483	60.634256667295	41
0	483	60.634256667295	41
0	483	60.634256667295	41
0	501	62.418507133215	42
0	501	62.418507133215	42
0	501	62.418507133215	42
0	503	64.153248823784	43
0	503	64.153248823784	43
0	503	64.153248823784	43
0	521	65.494827180473	44
0	521	65.494827180473	44
0	521	65.494827180473	44
0	523	66.930265073269	45
0	523	66.930265073269	45
0	523	66.930265073269	45
0	541	68.46258661577	46
0	541	68.46258661577	46
0	541	68.46258661577	46
0	543	70.132608950441	47
0	543	70.132608950441	47
0	543	70.132608950441	47
0	561	71.250771018281	48
0	561	71.250771018281	48
0	561	71.250771018281	48
0	579	72.362533329358	49
0	579	72.362533329358	49
0	579	72.362533329358	49
0	581	73.36982545706	50
0	581	73.36982545706	50
0	581	73.36982545706	50
0	583	74.688657566975	51
0	583	74.688657566975	51
0	583	74.688657566975	51
0	601	76.383182764123	52
0	601	76.383182764123	52
0	601	76.383182764123	52
0	619	78.163979082438	53
0	619	78.163979082438	53
0	619	78.163979082438	53
0	634	79.370647624903	54
0	634	79.370647624903	54
0	634	79.370647624903	54
0	652	80.860659281327	55
0	652	80.860659281327	55
0	652	80.860659281327	55
0	670	82.57851942915	56
0	670	82.57851942915	56
0	670	82.57851942915	56
0	688	83.806502179778	57
0	688	83.806502179778	57
0	688	83.806502179778	57
0	690	85.214644249133	58
0	690	85.214644249133	58
0	690	85.214644249133	58
0	708	86.863775070128	59
0	708	86.863775070128	59
0	708	86.863775070128	59
0	724	88.502233500429	60
0	724	88.502233500429	60
0	724	88.502233500429	60
0	742	89.508483637427	61
0	742	89.508483637427	61
0	742	89.508483637427	61
0	760	90.826832227944	62
0	760	90.826832227944	62
0	760	90.826832227944	62
0	778	91.968750576092	63
0	778	91.968750576092	63
0	778	91.968750576092	63
0	780	93.613903023372	64
0	780	93.613903023372	64
0	780	93.613903023372	64
0	798	95.123079129331	65
0	798	95.123079129331	65
0	798	95.123079129331	65
0	813	96.23137790996	66
0	813	96.23137790996	66
0	813	96.23137790996	66
0	815	98.05790317112	67
0	815	98.05790317112	67
0	815	98.05790317112	67
0	817	99.878368666697	68
0	817	99.878368666697	68
0	817	99.878368666697	68
0	835	101.494715920951	69
0	835	101.494715920951	69
0	835	101.494715920951	69
0	853	102.688740417197	70
0	853	102.688740417197	70
0	853	102.688740417197	70
0	871	104.456178971402	71
0	871	104.456178971402	71
0	871	104.456178971402	71
0	887	106.327436130562	72
0	887	106.327436130562	72
0	887	106.327436130562	72
0	889	107.633831856608	73
0	889	107.633831856608	73
0	889	107.633831856608	73
0	891	109.437069024261	74
0	891	109.437069024261	74
0	891	109.437069024261	74
0	909	110.463500430178	75
0	909	110.463500430178	75
0	909	110.463500430178	75
0	927	112.087611779407	76
0	927	112.087611779407	76
0	927	112.087611779407	76
0	945	113.114803963177	77
0	945	113.114803963177	77
0	945	113.114803963177	77
0	947	114.701781613356	78
0	947	114.701781613356	78
0	947	114.701781613356	78
0	965	115.777245512767	79
0	965	115.777245512767	79
0	965	115.777245512767	79
0	981	117.459763989853	80
0	981	117.459763989853	80
0	981	117.459763989853	80
0	999	118.733818414457	81
0	999	118.733818414457	81
0	999	118.733818414457	81
0	1017	120.301030815415	82
0	1017	120.301030815415	82
0	1017	120.301030815415	82
0	1035	121.986665783519	83
0	1035	121.986665783519	83
0	1035	121.986665783519	83
0	1037	123.109042393578	84
0	1037	123.109042393578	84
0	1037	123.109042393578	84
0	1055	124.685470935724	85
0	1055	124.685470935724	85
0	1055	124.685470935724	85
0	1061	126.107816423358	86
0	1061	126.107816423358	86
0	1061	126.107816423358	86
0	1063	127.619085072143	87
0	1063	127.619085072143	87
0	1063	127.619085072143	87
0	1081	129.264891583774	88
0	1081	129.264891583774	88
0	1081	129.264891583774	88
0	1099	130.288724921014	89
0	1099	130.288724921014	89
0	1099	130.288724921014	89
0	1101	131.591920432471	90
0	1101	131.591920432471	90
0	1101	131.591920432471	90
0	1119	132.648678331472	91
0	1119	132.648678331472	91
0	1119	132.648678331472	91
0	1137	133.880183228826	92
0	1137	133.880183228826	92
0	1137	133.880183228826	92
0	1148	135.788870182656	93
0	1148	135.788870182656	93
0	1148	135.788870182656	93
0	1164	137.137013642652	94
0	1164	137.137013642652	94
0	1164	137.137013642652	94
0	1182	138.253961567137	95
0	1182	138.253961567137	95
0	1182	138.253961567137	95
0	1200	140.233607285026	96
0	1200	140.233607285026	96
0	1200	140.233607285026	96
0	1218	141.568022148054	97
0	1218	141.568022148054	97
0	1218	141.568022148054	97
0	1236	143.123587201884	98
0	1236	143.123587201884	98
0	1236	143.123587201884	98
0	1254	144.993670875043	99
0	1254	144.993670875043	99
0	1254	144.993670875043	99
0	1272	146.781759114074	100
0	1272	146.781759114074	100
0	1272	146.781759114074	100
0	1274	148.261442102561	101
0	1274	148.261442102561	101
0	1274	148.261442102561	101
0	1276	149.513450410985	102
0	1276	149.513450410985	102
0	1276	149.513450410985	102
0	1278	150.694203091622	103
0	1278	150.694203091622	103
0	1278	150.694203091622	103
0	1280	152.485525607201	104
0	1280	152.485525607201	104
0	1280	152.485525607201	104
0	1298	154.357682170649	105
0	1298	154.357682170649	105
0	1298	154.357682170649	105
0	1300	156.316300132382	106
0	1300	156.316300132382	106
0	1300	156.316300132382	106
0	1318	157.57071193175	107
0	1318	157.57071193175	107
0	1318	157.57071193175	107
0	1320	158.988273925451	108
0	1320	158.988273925451	108
0	1320	158.988273925451	108
0	1338	160.012977412274	109
0	1338	160.012977412274	109
0	1338	160.012977412274	109
0	1356	161.164996298566	110
0	1356	161.164996298566	110
0	1356	161.164996298566	110
0	1358	162.420831102715	111
0	1358	162.420831102715	111
0	1358	162.420831102715	111
0	1360	163.489857974532	112
0	1360	163.489857974532	112
0	1360	163.489857974532	112
0	1378	164.630221876618	113
0	1378	164.630221876618	113
0	1378	164.630221876618	113
0	1380	166.400782563327	114
0	1380	166.400782563327	114
0	1380	166.400782563327	114
0	1398	168.187759532895	115
0	1398	168.187759532895	115
0	1398	168.187759532895	115
0	1416	169.364974403124	116
0	1416	169.364974403124	116
0	1416	169.364974403124	116
0	1434	171.061802668333	117
0	1434	171.061802668333	117
0	1434	171.061802668333	117
0	1452	172.596796932233	118
0	1452	172.596796932233	118
0	1452	172.596796932233	118
0	1470	174.574092955397	119
0	1470	174.574092955397	119
0	1470	174.574092955397	119
0	1488	175.659746320987	120
0	1488	175.659746320987	120
0	1488	175.659746320987	120
0	1494	177.264234684942	121
0	1494	177.264234684942	121
0	1494	177.264234684942	121
0	1496	178.567023345105	122
0	1496	178.567023345105	122
0	1496	178.567023345105	122
0	1514	180.197191447321	123
0	1514	180.197191447321	123
0	1514	180.197191447321	123
0	1516	182.074615164496	124
0	1516	182.074615164496	124
0	1516	182.074615164496	124
0	1534	183.922733388677	125
0	1534	183.922733388677	125
0	1534	183.922733388677	125
0	1536	185.789390178233	126
0	1536	185.789390178233	126
0	1536	185.789390178233	126
0	1554	186.934526281733	127
0	1554	186.934526281733	127
0	1554	186.934526281733	127
0	1565	188.552075699972	128
0	1565	188.552075699972	128
0	1565	188.552075699972	128
0	1567	190.080590657027	129
0	1567	190.080590657027	129
0	1567	190.080590657027	129
0	1585	191.440236921723	130
0	1585	191.440236921723	130
0	1585	191.440236921723	130
0	1603	192.730606674052	131
0	1603	192.730606674052	131
0	1603	192.730606674052	131
0	1621	194.165782854029	132
0	1621	194.165782854029	132
0	1621	194.165782854029	132
0	1623	195.837437775287	133
0	1623	195.837437775287	133
0	1623	195.837437775287	133
0	1625	197.211178332403	134
0	1625	197.211178332403	134
0	1625	197.211178332403	134
0	1627	198.615573794417	135
0	1627	198.615573794417	135
0	1627	198.615573794417	135
0	1645	200.490818566013	136
0	1645	200.490818566013	136
0	1645	200.490818566013	136
0	1663	202.419983757729	137
0	1663	202.419983757729	137
0	1663	202.419983757729	137
0	1681	203.884690515999	138
0	1681	203.884690515999	138
0	1681	203.884690515999	138
0	1699	205.5663486948	139
0	1699	205.5663486948	139
0	1699	205.5663486948	139
0	1701	206.854159871884	140
0	1701	206.854159871884	140
0	1701	206.854159871884	140
0	1719	208.411776886391	141
0	1719	208.411776886391	141
0	1719	208.411776886391	141
0	1721	209.484907820425	142
0	1721	209.484907820425	142
0	1721	209.484907820425	142
0	1739	210.713261486799	143
0	1739	210.713261486799	143
0	1739	210.713261486799	143
0	1757	212.204290311387	144
0	1757	212.204290311387	144
0	1757	212.204290311387	144
0	1775	213.879573619761	145
0	1775	213.879573619761	145
0	1775	213.879573619761	145
0	1777	215.341183112305	146
0	1777	215.341183112305	146
0	1777	215.341183112305	146
0	1795	216.435555925895	147
0	1795	216.435555925895	147
0	1795	216.435555925895	147
0	1813	218.238885689596	148
0	1813	218.238885689596	148
0	1813	218.238885689596	148
0	1831	220.219756347196	149
0	1831	220.219756347196	149
0	1831	220.219756347196	149
0	1849	221.665603359997	150
0	1849	221.665603359997	150
0	1849	221.665603359997	150
0	1867	223.297763831051	151
0	1867	223.297763831051	151
0	1867	223.297763831051	151
0	1869	224.830399258131	152
0	1869	224.830399258131	152
0	1869	224.830399258131	152
0	1871	226.528395198354	153
0	1871	226.528395198354	153
0	1871	226.528395198354	153
0	1889	227.625849885702	154
0	1889	227.625849885702	154
0	1889	227.625849885702	154
0	1907	229.498813727008	155
0	1907	229.498813727008	155
0	1907	229.498813727008	155
0	1925	231.104328152094	156
0	1925	231.104328152094	156
0	1925	231.104328152094	156
0	1943	232.320022441516	157
0	1943	232.320022441516	157
0	1943	232.320022441516	157
0	1958	233.726514596561	158
0	1958	233.726514596561	158
0	1958	233.726514596561	158
0	1976	234.873906378238	159
0	1976	234.873906378238	159
0	1976	234.873906378238	159
0	1994	236.64444821591	160
0	1994	236.64444821591	160
0	1994	236.64444821591	160
0	2006	238.634208601969	161
0	2006	238.634208601969	161
0	2006	238.634208601969	161
0	2008	240.324504878209	162
0	2008	240.324504878209	162
0	2008	240.324504878209	162
0	2026	241.423786192969	163
0	2026	241.423786192969	163
0	2026	241.423786192969	163
0	2041	243.288658681861	164
0	2041	243.288658681861	164
0	2041	243.288658681861	164
0	2059	245.155221856735	165
0	2059	245.155221856735	165
0	2059	245.155221856735	165
0	2077	246.760795863648	166
0	2077	246.760795863648	166
0	2077	246.760795863648	166
0	2095	247.832253768179	167
0	2095	247.832253768179	167
0	2095	247.832253768179	167
0	2110	249.314923873009	168
0	2110	249.314923873009	168
0	2110	249.314923873009	168
0	2128	250.557469341276	169
0	2128	250.557469341276	169
0	2128	250.557469341276	169
0	2130	252.091541531333	170
0	2130	252.091541531333	170
0	2130	252.091541531333	170
0	2148	253.958962112502	171
0	2148	253.958962112502	171
0	2148	253.958962112502	171
0	2166	255.695243390114	172
0	2166	255.695243390114	172
0	2166	255.695243390114	172
0	2184	257.069358137506	173
0	2184	257.069358137506	173
0	2184	257.069358137506	173
0	2200	258.224141576164	174
0	2200	258.224141576164	174
0	2200	258.224141576164	174
0	2216	259.706753100105	175
0	2216	259.706753100105	175
0	2216	259.706753100105	175
0	2218	261.289979995763	176
0	2218	261.289979995763	176
0	2218	261.289979995763	176
0	2220	262.959209231496	177
0	2220	262.959209231496	177
0	2220	262.959209231496	177
0	2238	264.198762741707	178
0	2238	264.198762741707	178
0	2238	264.198762741707	178
0	2240	265.816631997771	179
0	2240	265.816631997771	179
0	2240	265.816631997771	179
0	2255	267.372120347874	180
0	2255	267.372120347874	180
0	2255	267.372120347874	180
0	2273	268.88583078382	181
0	2273	268.88583078382	181
0	2273	268.88583078382	181
0	2275	270.407201167032	182
0	2275	270.407201167032	182
0	2275	270.407201167032	182
0	2277	271.985539684607	183
0	2277	271.985539684607	183
0	2277	271.985539684607	183
0	2295	273.630869787954	184
0	2295	273.630869787954	184
0	2295	273.630869787954	184
0	2313	275.578821268467	185
0	2313	275.578821268467	185
0	2313	275.578821268467	185
0	2331	276.579751304652	186
0	2331	276.579751304652	186
0	2331	276.579751304652	186
0	2333	278.290333608932	187
0	2333	278.290333608932	187
0	2333	278.290333608932	187
0	2351	279.84013855371	188
0	2351	279.84013855371	188
0	2351	279.84013855371	188
0	2366	281.087605665972	189
0	2366	281.087605665972	189
0	2366	281.087605665972	189
0	2384	282.62251167565	190
0	2384	282.62251167565	190
0	2384	282.62251167565	190
0	2400	283.833987806294	191
0	2400	283.833987806294	191
0	2400	283.833987806294	191
0	2418	285.578720632544	192
0	2418	285.578720632544	192
0	2418	285.578720632544	192
0	2436	287.248155968799	193
0	2436	287.248155968799	193
0	2436	287.248155968799	193
0	2438	288.386068543722	194
0	2438	288.386068543722	194
0	2438	288.386068543722	194
0	2440	289.87569930458	195
0	2440	289.87569930458	195
0	2440	289.87569930458	195
0	2458	291.586426434876	196
0	2458	291.586426434876	196
0	2458	291.586426434876	196
0	2476	292.824939479423	197
0	2476	292.824939479423	197
0	2476	292.824939479423	197
0	2478	293.991944845603	198
0	2478	293.991944845603	198
0	2478	293.991944845603	198
0	2480	295.77334096476	199
0	2480	295.77334096476	199
0	2480	295.77334096476	199
0	2495	297.755447743996	200
0	2495	297.755447743996	200
0	2495	297.755447743996	200
0	2510	299.250234137359	201
0	2510	299.250234137359	201
0	2510	299.250234137359	201
0	2528	300.645640655258	202
0	2528	300.645640655258	202
0	2528	300.645640655258	202
0	2546	301.796846577968	203
0	2546	301.796846577968	203
0	2546	301.796846577968	203
0	2564	303.555560796359	204
0	2564	303.555560796359	204
0	2564	303.555560796359	204
0	2566	305.345667123166	205
0	2566	305.345667123166	205
0	2566	305.345667123166	205
0	2581	306.882003028481	206
0	2581	306.882003028481	206
0	2581	306.882003028481	206
0	2599	308.502493438148	207
0	2599	308.502493438148	207
0	2599	308.502493438148	207
0	2617	309.80128334004	208
0	2617	309.80128334004	208
0	2617	309.80128334004	208
0	2635	311.546963276179	209
0	2635	311.546963276179	209
0	2635	311.546963276179	209
0	2653	312.59493775277	210
0	2653	312.59493775277	210
0	2653	312.59493775277	210
0	2671	314.43930631883	211
0	2671	314.43930631883	211
0	2671	314.43930631883	211
0	2689	315.676495935372	212
0	2689	315.676495935372	212
0	2689	315.676495935372	212
0	2705	317.252644123346	213
0	2705	317.252644123346	213
0	2705	317.252644123346	213
0	2723	319.068185756984	214
0	2723	319.068185756984	214
0	2723	319.068185756984	214
0	2725	320.748855898692	215
0	2725	320.748855898692	215
0	2725	320.748855898692	215
0	2741	322.715190060739	216
0	2741	322.715190060739	216
0	2741	322.715190060739	216
0	2759	324.603354860865	217
0	2759	324.603354860865	217
0	2759	324.603354860865	217
0	2777	326.0953681465	218
0	2777	326.0953681465	218
0	2777	326.0953681465	218
0	2795	327.782563222874	219
0	2795	327.782563222874	219
0	2795	327.782563222874	219
0	2797	329.346316185849	220
0	2797	329.346316185849	220
0	2797	329.346316185849	220
0	2799	331.234277381864	221
0	2799	331.234277381864	221
0	2799	331.234277381864	221
0	2801	332.311783056776	222
0	2801	332.311783056776	222
0	2801	332.311783056776	222
0	2819	334.019929877319	223
0	2819	334.019929877319	223
0	2819	334.019929877319	223
0	2834	335.368848991184	224
0	2834	335.368848991184	224
0	2834	335.368848991184	224
0	2836	336.909876830014	225
0	2836	336.909876830014	225
0	2836	336.909876830014	225
0	2854	338.620291106705	226
0	2854	338.620291106705	226
0	2854	338.620291106705	226
0	2872	340.551743613625	227
0	2872	340.551743613625	227
0	2872	340.551743613625	227
0	2890	342.025756817613	228
0	2890	342.025756817613	228
0	2890	342.025756817613	228
0	2908	343.59694677412	229
0	2908	343.59694677412	229
0	2908	343.59694677412	229
0	2923	345.116031583235	230
0	2923	345.116031583235	230
0	2923	345.116031583235	230
0	2941	347.00314480795	231
0	2941	347.00314480795	231
0	2941	347.00314480795	231
0	2943	348.350176031072	232
0	2943	348.350176031072	232
0	2943	348.350176031072	232
0	2945	349.504662160831	233
0	2945	349.504662160831	233
0	2945	349.504662160831	233
0	2947	351.503795681823	234
0	2947	351.503795681823	234
0	2947	351.503795681823	234
0	2959	353.485794520074	235
0	2959	353.485794520074	235
0	2959	353.485794520074	235
0	2977	354.516687625622	236
0	2977	354.516687625622	236
0	2977	354.516687625622	236
0	2979	356.4524568015	237
0	2979	356.4524568015	237
0	2979	356.4524568015	237
0	2981	357.673481888439	238
0	2981	357.673481888439	238
0	2981	357.673481888439	238
0	2997	359.394988833529	239
0	2997	359.394988833529	239
0	2997	359.394988833529	239
0	3015	360.510757774183	240
0	3015	360.510757774183	240
0	3015	360.510757774183	240
0	3033	362.398371128434	241
0	3033	362.398371128434	241
0	3033	362.398371128434	241
0	3051	364.132911036791	242
0	3051	364.132911036791	242
0	3051	364.132911036791	242
0	3053	365.883037293166	243
0	3053	365.883037293166	243
0	3053	365.883037293166	243
0	3055	367.529887218563	244
0	3055	367.529887218563	244
0	3055	367.529887218563	244
0	3073	369.192093422938	245
0	3073	369.192093422938	245
0	3073	369.192093422938	245
0	3075	370.368852676427	246
0	3075	370.368852676427	246
0	3075	370.368852676427	246
0	3081	372.181129794637	247
0	3081	372.181129794637	247
0	3081	372.181129794637	247
0	3083	373.712515648058	248
0	3083	373.712515648058	248
0	3083	373.712515648058	248
0	3101	375.212651380873	249
0	3101	375.212651380873	249
0	3101	375.212651380873	249
0	3119	376.991764890332	250
0	3119	376.991764890332	250
0	3119	376.991764890332	250
0	3135	378.859747342136	251
0	3135	378.859747342136	251
0	3135	378.859747342136	251
0	3153	380.193796308548	252
0	3153	380.193796308548	252
0	3153	380.193796308548	252
0	3169	381.229151268559	253
0	3169	381.229151268559	253
0	3169	381.229151268559	253
0	3184	382.424784642481	254
0	3184	382.424784642481	254
0	3184	382.424784642481	254
0	3202	384.375041992939	255
0	3202	384.375041992939	255
0	3202	384.375041992939	255
0	3220	385.806409375113	256
0	3220	385.806409375113	256
0	3220	385.806409375113	256
0	3238	387.509927578107	257
0	3238	387.509927578107	257
0	3238	387.509927578107	257
0	3253	389.365731753245	258
0	3253	389.365731753245	258
0	3253	389.365731753245	258
0	3255	390.704147357563	259
0	3255	390.704147357563	259
0	3255	390.704147357563	259
0	3257	392.194774330896	260
0	3257	392.194774330896	260
0	3257	392.194774330896	260
0	3259	394.010358985583	261
0	3259	394.010358985583	261
0	3259	394.010358985583	261
0	3277	395.238559701782	262
0	3277	395.238559701782	262
0	3277	395.238559701782	262
0	3295	397.061791892465	263
0	3295	397.061791892465	263
0	3295	397.061791892465	263
0	3297	398.670383954257	264
0	3297	398.670383954257	264
0	3297	398.670383954257	264
0	3315	399.68248278445	265
0	3315	399.68248278445	265
0	3315	399.68248278445	265
0	3321	401.44287182677	266
0	3321	401.44287182677	266
0	3321	401.44287182677	266
0	3339	403.218400351074	267
0	3339	403.218400351074	267
0	3339	403.218400351074	267
0	3357	404.497381956852	268
0	3357	404.497381956852	268
0	3357	404.497381956852	268
0	3375	406.172942315298	269
0	3375	406.172942315298	269
0	3375	406.172942315298	269
0	3377	407.509047217271	270
0	3377	407.509047217271	270
0	3377	407.509047217271	270
0	3395	409.012252807454	271
0	3395	409.012252807454	271
0	3395	409.012252807454	271
0	3397	410.271646814723	272
0	3397	410.271646814723	272
0	3397	410.271646814723	272
0	3415	411.929052639589	273
0	3415	411.929052639589	273
0	3415	411.929052639589	273
0	3433	413.553439495223	274
0	3433	413.553439495223	274
0	3433	413.553439495223	274
0	3451	414.824727043579	275
0	3451	414.824727043579	275
0	3451	414.824727043579	275
0	3467	416.300306506524	276
0	3467	416.300306506524	276
0	3467	416.300306506524	276
0	3469	417.944377977936	277
0	3469	417.944377977936	277
0	3469	417.944377977936	277
0	3487	419.571715471404	278
0	3487	419.571715471404	278
0	3487	419.571715471404	278
0	3489	420.926271231914	279
0	3489	420.926271231914	279
0	3489	420.926271231914	279
0	3507	422.341319119161	280
0	3507	422.341319119161	280
0	3507	422.341319119161	280
0	3509	423.485078595415	281
0	3509	423.485078595415	281
0	3509	423.485078595415	281
0	3521	425.160362243489	282
0	3521	425.160362243489	282
0	3521	425.160362243489	282
0	3539	426.537591715413	283
0	3539	426.537591715413	283
0	3539	426.537591715413	283
0	3541	427.591806291672	284
0	3541	427.591806291672	284
0	3541	427.591806291672	284
0	3543	429.23337917386	285
0	3543	429.23337917386	285
0	3543	429.23337917386	285
0	3561	430.393899049912	286
0	3561	430.393899049912	286
0	3561	430.393899049912	286
0	3563	431.791603851434	287
0	3563	431.791603851434	287
0	3563	431.791603851434	287
0	3578	433.63295996033	288
0	3578	433.63295996033	288
0	3578	433.63295996033	288
0	3596	435.314830280676	289
0	3596	435.314830280676	289
0	3596	435.314830280676	289
0	3612	436.372721132192	290
0	3612	436.372721132192	290
0	3612	436.372721132192	290
0	3614	437.49554360851	291
0	3614	437.49554360851	291
0	3614	437.49554360851	291
0	3632	439.147150156156	292
0	3632	439.147150156156	292
0	3632	439.147150156156	292
0	3650	440.512949088889	293
0	3650	440.512949088889	293
0	3650	440.512949088889	293
0	3668	442.31090360747	294
0	3668	442.31090360747	294
0	3668	442.31090360747	294
0	3684	443.888842728988	295
0	3684	443.888842728988	295
0	3684	443.888842728988	295
0	3686	445.156796960926	296
0	3686	445.156796960926	296
0	3686	445.156796960926	296
0	3702	446.44895471127	297
0	3702	446.44895471127	297
0	3702	446.44895471127	297
0	3704	448.398273586596	298
0	3704	448.398273586596	298
0	3704	448.398273586596	298
0	3706	449.875567916383	299
0	3706	449.875567916383	299
0	3706	449.875567916383	299
0	3724	451.471862281042	300
0	3724	451.471862281042	300
0	3724	451.471862281042	300
0	3742	452.751042960745	301
0	3742	452.751042960745	301
0	3742	452.751042960745	301
0	3744	454.186853465459	302
0	3744	454.186853465459	302
0	3744	454.186853465459	302
0	3746	456.087230495012	303
0	3746	456.087230495012	303
0	3746	456.087230495012	303
0	3748	458.02088765248	304
0	3748	458.02088765248	304
0	3748	458.02088765248	304
0	3764	459.699273859917	305
0	3764	459.699273859917	305
0	3764	459.699273859917	305
0	3782	461.170527922989	306
0	3782	461.170527922989	306
0	3782	461.170527922989	306
0	3800	462.563103655188	307
0	3800	462.563103655188	307
0	3800	462.563103655188	307
0	3818	463.776927754118	308
0	3818	463.776927754118	308
0	3818	463.776927754118	308
0	3834	465.038313508334	309
0	3834	465.038313508334	309
0	3834	465.038313508334	309
0	3852	466.491379524649	310
0	3852	466.491379524649	310
0	3852	466.491379524649	310
0	3854	467.845529863679	311
0	3854	467.845529863679	311
0	3854	467.845529863679	311
0	3869	469.533162554561	312
0	3869	469.533162554561	312
0	3869	469.533162554561	312
0	3871	471.454535004052	313
0	3871	471.454535004052	313
0	3871	471.454535004052	313
0	3886	472.919264532228	314
0	3886	472.919264532228	314
0	3886	472.919264532228	314
0	3904	474.788544270045	315
0	3904	474.788544270045	315
0	3904	474.788544270045	315
0	3906	476.277944101089	316
0	3906	476.277944101089	316
0	3906	476.277944101089	316
0	3924	477.638867231387	317
0	3924	477.638867231387	317
0	3924	477.638867231387	317
0	3939	478.936158005216	318
0	3939	478.936158005216	318
0	3939	478.936158005216	318
0	3957	480.817187800606	319
0	3957	480.817187800606	319
0	3957	480.817187800606	319
0	3975	482.118524578003	320
0	3975	482.118524578003	320
0	3975	482.118524578003	320
0	3993	484.041305100614	321
0	3993	484.041305100614	321
0	3993	484.041305100614	321
0	4011	485.700784154771	322
0	4011	485.700784154771	322
0	4011	485.700784154771	322
0	4029	487.399647411494	323
0	4029	487.399647411494	323
0	4029	487.399647411494	323
0	4031	488.780565535952	324
0	4031	488.780565535952	324
0	4031	488.780565535952	324
0	4043	490.466605037055	325
0	4043	490.466605037055	325
0	4043	490.466605037055	325
0	4061	492.228699262557	326
0	4061	492.228699262557	326
0	4061	492.228699262557	326
0	4079	493.824927865132	327
0	4079	493.824927865132	327
0	4079	493.824927865132	327
0	4097	494.839554026095	328
0	4097	494.839554026095	328
0	4097	494.839554026095	328
0	4105	496.615447019996	329
0	4105	496.615447019996	329
0	4105	496.615447019996	329
0	4123	497.727866009647	330
0	4123	497.727866009647	330
0	4123	497.727866009647	330
0	4125	499.321195164533	331
0	4125	499.321195164533	331
0	4125	499.321195164533	331
0	4143	500.461862302456	332
0	4143	500.461862302456	332
0	4143	500.461862302456	332
0	4145	502.308501046222	333
0	4145	502.308501046222	333
0	4145	502.308501046222	333
0	4163	503.611232868001	334
0	4163	503.611232868001	334
0	4163	503.611232868001	334
0	4165	504.978165733466	335
0	4165	504.978165733466	335
0	4165	504.978165733466	335
0	4167	506.237222515117	336
0	4167	506.237222515117	336
0	4167	506.237222515117	336
0	4185	507.403959096247	337
0	4185	507.403959096247	337
0	4185	507.403959096247	337
0	4187	509.033588121716	338
0	4187	509.033588121716	338
0	4187	509.033588121716	338
0	4205	510.942998359516	339
0	4205	510.942998359516	339
0	4205	510.942998359516	339
0	4223	512.06754633023	340
0	4223	512.06754633023	340
0	4223	512.06754633023	340
0	4225	513.080812224257	341
0	4225	513.080812224257	341
0	4225	513.080812224257	341
0	4227	514.720998270274	342
0	4227	514.720998270274	342
0	4227	514.720998270274	342
0	4245	516.254485376016	343
0	4245	516.254485376016	343
0	4245	516.254485376016	343
0	4263	517.718182042078	344
0	4263	517.718182042078	344
0	4263	517.718182042078	344
0	4279	518.77654495493	345
0	4279	518.77654495493	345
0	4279	518.77654495493	345
0	4297	520.342053024633	346
0	4297	520.342053024633	346
0	4297	520.342053024633	346
0	4299	521.838777204579	347
0	4299	521.838777204579	347
0	4299	521.838777204579	347
0	4317	523.270694371382	348
0	4317	523.270694371382	348
0	4317	523.270694371382	348
0	4335	524.705300971003	349
0	4335	524.705300971003	349
0	4335	524.705300971003	349
0	4353	526.496172667084	350
0	4353	526.496172667084	350
0	4353	526.496172667084	350
0	4371	528.166985768195	351
0	4371	528.166985768195	351
0	4371	528.166985768195	351
0	4389	530.005768449347	352
0	4389	530.005768449347	352
0	4389	530.005768449347	352
0	4407	531.284830133732	353
0	4407	531.284830133732	353
0	4407	531.284830133732	353