version 3
run General-4-20231019-20:11:42-68151
attr configname General
attr datetime 20231019-20:11:42
attr datetimef 20231019-201142
attr experiment General
attr inifile omnetpp.ini
attr iterationvars ""
attr iterationvarsd ""
attr iterationvarsf ""
attr measurement ""
attr network Reliability
attr processid 68151
attr repetition 4
attr replication #4
attr resultdir results
attr runnumber 4
attr seedset 4
config network Reliability
config Reliability.node[*].transmissionTime "uniform(1s, 2s)"
config Reliability.node[*].delayTime "uniform(0.01s, 0.2s)"
config Reliability.node[*].lossProbability 0.3
config record-eventlog true
config sim-time-limit 1000s
config repeat 5

vector 0 Reliability.node[0] txVector ETV
vector 1 Reliability.node[1] txVector ETV
vector 2 Reliability.node[1] rxVector ETV
vector 3 Reliability.node[3] txVector ETV
vector 4 Reliability.node[3] rxVector ETV
vector 5 Reliability.node[2] txVector ETV
vector 6 Reliability.node[2] rxVector ETV
vector 7 Reliability.node[4] txVector ETV
vector 8 Reliability.node[4] rxVector ETV
vector 9 Reliability.node[5] txVector ETV
vector 10 Reliability.node[5] rxVector ETV
vector 11 Reliability.node[6] rxVector ETV
vector 12 Reliability.node[6] e2eVector ETV
vector 13 Reliability.node[0] rxVector ETV
0	1	0.193735669288	1
0	1	0.193735669288	1
0	1	0.193735669288	1
0	3	1.740967922532	2
0	3	1.740967922532	2
0	3	1.740967922532	2
0	21	3.596588867404	3
0	21	3.596588867404	3
0	21	3.596588867404	3
0	23	5.032735516005	4
0	23	5.032735516005	4
0	23	5.032735516005	4
0	41	6.072515878049	5
0	41	6.072515878049	5
0	41	6.072515878049	5
0	59	7.722320991257	6
0	59	7.722320991257	6
0	59	7.722320991257	6
0	77	9.669395018058	7
0	77	9.669395018058	7
0	77	9.669395018058	7
0	95	10.734462825969	8
0	95	10.734462825969	8
0	95	10.734462825969	8
0	110	12.215922769314	9
0	110	12.215922769314	9
0	110	12.215922769314	9
0	128	13.299106886532	10
0	128	13.299106886532	10
0	128	13.299106886532	10
0	146	14.335968443347	11
0	146	14.335968443347	11
0	146	14.335968443347	11
0	164	16.117499566326	12
0	164	16.117499566326	12
0	164	16.117499566326	12
0	182	17.424916178841	13
0	182	17.424916178841	13
0	182	17.424916178841	13
0	200	18.646497103074	14
0	200	18.646497103074	14
0	200	18.646497103074	14
0	218	20.261859117928	15
0	218	20.261859117928	15
0	218	20.261859117928	15
0	220	21.773246403937	16
0	220	21.773246403937	16
0	220	21.773246403937	16
0	238	23.319652236453	17
0	238	23.319652236453	17
0	238	23.319652236453	17
0	246	25.185776422186	18
0	246	25.185776422186	18
0	246	25.185776422186	18
0	248	26.639605660843	19
0	248	26.639605660843	19
0	248	26.639605660843	19
0	250	28.47831636147	20
0	250	28.47831636147	20
0	250	28.47831636147	20
0	256	30.347742279213	21
0	256	30.347742279213	21
0	256	30.347742279213	21
0	274	32.333967003658	22
0	274	32.333967003658	22
0	274	32.333967003658	22
0	292	33.930470280502	23
0	292	33.930470280502	23
0	292	33.930470280502	23
0	294	35.120600281203	24
0	294	35.120600281203	24
0	294	35.120600281203	24
0	312	36.327563305305	25
0	312	36.327563305305	25
0	312	36.327563305305	25
0	314	38.051295814024	26
0	314	38.051295814024	26
0	314	38.051295814024	26
0	332	39.696744161345	27
0	332	39.696744161345	27
0	332	39.696744161345	27
0	350	40.94688606813	28
0	350	40.94688606813	28
0	350	40.94688606813	28
0	368	42.618467183704	29
0	368	42.618467183704	29
0	368	42.618467183704	29
0	370	44.098155005523	30
0	370	44.098155005523	30
0	370	44.098155005523	30
0	388	45.212488548751	31
0	388	45.212488548751	31
0	388	45.212488548751	31
0	406	46.704361813762	32
0	406	46.704361813762	32
0	406	46.704361813762	32
0	422	47.759438816379	33
0	422	47.759438816379	33
0	422	47.759438816379	33
0	440	48.867323039486	34
0	440	48.867323039486	34
0	440	48.867323039486	34
0	448	50.861814700221	35
0	448	50.861814700221	35
0	448	50.861814700221	35
0	450	51.944638228431	36
0	450	51.944638228431	36
0	450	51.944638228431	36
0	462	53.428726233929	37
0	462	53.428726233929	37
0	462	53.428726233929	37
0	480	55.192718282496	38
0	480	55.192718282496	38
0	480	55.192718282496	38
0	498	57.155893446333	39
0	498	57.155893446333	39
0	498	57.155893446333	39
0	500	59.114012238258	40
0	500	59.114012238258	40
0	500	59.114012238258	40
0	518	60.799724685648	41
0	518	60.799724685648	41
0	518	60.799724685648	41
0	536	62.486323964936	42
0	536	62.486323964936	42
0	536	62.486323964936	42
0	538	64.482112964071	43
0	538	64.482112964071	43
0	538	64.482112964071	43
0	556	65.544864776	44
0	556	65.544864776	44
0	556	65.544864776	44
0	574	67.314005033966	45
0	574	67.314005033966	45
0	574	67.314005033966	45
0	587	69.02695134577	46
0	587	69.02695134577	46
0	587	69.02695134577	46
0	605	70.099932941297	47
0	605	70.099932941297	47
0	605	70.099932941297	47
0	621	72.046702470552	48
0	621	72.046702470552	48
0	621	72.046702470552	48
0	623	73.226547647888	49
0	623	73.226547647888	49
0	623	73.226547647888	49
0	638	75.21636690471	50
0	638	75.21636690471	50
0	638	75.21636690471	50
0	644	76.233861843978	51
0	644	76.233861843978	51
0	644	76.233861843978	51
0	662	77.430529956163	52
0	662	77.430529956163	52
0	662	77.430529956163	52
0	664	78.967010186908	53
0	664	78.967010186908	53
0	664	78.967010186908	53
0	666	80.163056117173	54
0	666	80.163056117173	54
0	666	80.163056117173	54
0	684	81.38991839757	55
0	684	81.38991839757	55
0	684	81.38991839757	55
0	702	82.868112505803	56
0	702	82.868112505803	56
0	702	82.868112505803	56
0	720	84.201380979426	57
0	720	84.201380979426	57
0	720	84.201380979426	57
0	738	85.774910896707	58
0	738	85.774910896707	58
0	738	85.774910896707	58
0	756	87.309154494123	59
0	756	87.309154494123	59
0	756	87.309154494123	59
0	758	88.846469630178	60
0	758	88.846469630178	60
0	758	88.846469630178	60
0	776	90.612159696797	61
0	776	90.612159696797	61
0	776	90.612159696797	61
0	794	91.684529596631	62
0	794	91.684529596631	62
0	794	91.684529596631	62
0	796	93.099349527078	63
0	796	93.099349527078	63
0	796	93.099349527078	63
0	814	94.355264846392	64
0	814	94.355264846392	64
0	814	94.355264846392	64
0	832	95.454945931833	65
0	832	95.454945931833	65
0	832	95.454945931833	65
0	847	96.88883977725	66
0	847	96.88883977725	66
0	847	96.88883977725	66
0	863	97.914299329434	67
0	863	97.914299329434	67
0	863	97.914299329434	67
0	881	99.173537883366	68
0	881	99.173537883366	68
0	881	99.173537883366	68
0	899	100.28569856162	69
0	899	100.28569856162	69
0	899	100.28569856162	69
0	917	101.908032894524	70
0	917	101.908032894524	70
0	917	101.908032894524	70
0	935	103.693797739146	71
0	935	103.693797739146	71
0	935	103.693797739146	71
0	953	105.212487451656	72
0	953	105.212487451656	72
0	953	105.212487451656	72
0	971	107.178856569499	73
0	971	107.178856569499	73
0	971	107.178856569499	73
0	973	108.34555272634	74
0	973	108.34555272634	74
0	973	108.34555272634	74
0	975	109.593271900358	75
0	975	109.593271900358	75
0	975	109.593271900358	75
0	993	111.411354097229	76
0	993	111.411354097229	76
0	993	111.411354097229	76
0	1011	112.487797422259	77
0	1011	112.487797422259	77
0	1011	112.487797422259	77
0	1013	113.551699222921	78
0	1013	113.551699222921	78
0	1013	113.551699222921	78
0	1015	115.499747597769	79
0	1015	115.499747597769	79
0	1015	115.499747597769	79
0	1017	117.443098968284	80
0	1017	117.443098968284	80
0	1017	117.443098968284	80
0	1019	118.970241995917	81
0	1019	118.970241995917	81
0	1019	118.970241995917	81
0	1021	120.228800099033	82
0	1021	120.228800099033	82
0	1021	120.228800099033	82
0	1039	121.274784000048	83
0	1039	121.274784000048	83
0	1039	121.274784000048	83
0	1057	122.489928547682	84
0	1057	122.489928547682	84
0	1057	122.489928547682	84
0	1072	123.650086139485	85
0	1072	123.650086139485	85
0	1072	123.650086139485	85
0	1074	124.905453182447	86
0	1074	124.905453182447	86
0	1074	124.905453182447	86
0	1092	126.430338479734	87
0	1092	126.430338479734	87
0	1092	126.430338479734	87
0	1110	127.786636000887	88
0	1110	127.786636000887	88
0	1110	127.786636000887	88
0	1112	128.963542211956	89
0	1112	128.963542211956	89
0	1112	128.963542211956	89
0	1114	129.988030003772	90
0	1114	129.988030003772	90
0	1114	129.988030003772	90
0	1132	131.714010738923	91
0	1132	131.714010738923	91
0	1132	131.714010738923	91
0	1150	133.277362525618	92
0	1150	133.277362525618	92
0	1150	133.277362525618	92
0	1168	134.542893049462	93
0	1168	134.542893049462	93
0	1168	134.542893049462	93
0	1170	136.212186110594	94
0	1170	136.212186110594	94
0	1170	136.212186110594	94
0	1188	137.300131783277	95
0	1188	137.300131783277	95
0	1188	137.300131783277	95
0	1190	138.33110370549	96
0	1190	138.33110370549	96
0	1190	138.33110370549	96
0	1192	140.1275445874	97
0	1192	140.1275445874	97
0	1192	140.1275445874	97
0	1194	141.449141582163	98
0	1194	141.449141582163	98
0	1194	141.449141582163	98
0	1196	142.731899925662	99
0	1196	142.731899925662	99
0	1196	142.731899925662	99
0	1214	144.706526356671	100
0	1214	144.706526356671	100
0	1214	144.706526356671	100
0	1216	146.65149889669	101
0	1216	146.65149889669	101
0	1216	146.65149889669	101
0	1218	148.175293259011	102
0	1218	148.175293259011	102
0	1218	148.175293259011	102
0	1220	149.216513751229	103
0	1220	149.216513751229	103
0	1220	149.216513751229	103
0	1238	150.428477409683	104
0	1238	150.428477409683	104
0	1238	150.428477409683	104
0	1240	152.35351571526	105
0	1240	152.35351571526	105
0	1240	152.35351571526	105
0	1258	154.298382551098	106
0	1258	154.298382551098	106
0	1258	154.298382551098	106
0	1260	156.239943363858	107
0	1260	156.239943363858	107
0	1260	156.239943363858	107
0	1276	157.831746700141	108
0	1276	157.831746700141	108
0	1276	157.831746700141	108
0	1291	159.475369598405	109
0	1291	159.475369598405	109
0	1291	159.475369598405	109
0	1309	161.021346316129	110
0	1309	161.021346316129	110
0	1309	161.021346316129	110
0	1327	162.477399854144	111
0	1327	162.477399854144	111
0	1327	162.477399854144	111
0	1329	163.650448037699	112
0	1329	163.650448037699	112
0	1329	163.650448037699	112
0	1340	165.07259510147	113
0	1340	165.07259510147	113
0	1340	165.07259510147	113
0	1358	166.322810486812	114
0	1358	166.322810486812	114
0	1358	166.322810486812	114
0	1376	168.291172711333	115
0	1376	168.291172711333	115
0	1376	168.291172711333	115
0	1394	169.794075190477	116
0	1394	169.794075190477	116
0	1394	169.794075190477	116
0	1412	171.385219245838	117
0	1412	171.385219245838	117
0	1412	171.385219245838	117
0	1414	172.458799084105	118
0	1414	172.458799084105	118
0	1414	172.458799084105	118
0	1432	174.081998846881	119
0	1432	174.081998846881	119
0	1432	174.081998846881	119
0	1434	175.140178586511	120
0	1434	175.140178586511	120
0	1434	175.140178586511	120
0	1452	176.173378729882	121
0	1452	176.173378729882	121
0	1452	176.173378729882	121
0	1454	177.791836535247	122
0	1454	177.791836535247	122
0	1454	177.791836535247	122
0	1469	179.250878139786	123
0	1469	179.250878139786	123
0	1469	179.250878139786	123
0	1471	180.957558838339	124
0	1471	180.957558838339	124
0	1471	180.957558838339	124
0	1489	182.266777727907	125
0	1489	182.266777727907	125
0	1489	182.266777727907	125
0	1505	183.47655978465	126
0	1505	183.47655978465	126
0	1505	183.47655978465	126
0	1523	184.913817489906	127
0	1523	184.913817489906	127
0	1523	184.913817489906	127
0	1525	186.34236950722	128
0	1525	186.34236950722	128
0	1525	186.34236950722	128
0	1543	187.775556743298	129
0	1543	187.775556743298	129
0	1543	187.775556743298	129
0	1545	189.701516308975	130
0	1545	189.701516308975	130
0	1545	189.701516308975	130
0	1563	191.372556826253	131
0	1563	191.372556826253	131
0	1563	191.372556826253	131
0	1581	193.029552068482	132
0	1581	193.029552068482	132
0	1581	193.029552068482	132
0	1599	194.827280153674	133
0	1599	194.827280153674	133
0	1599	194.827280153674	133
0	1617	196.011207454991	134
0	1617	196.011207454991	134
0	1617	196.011207454991	134
0	1635	197.339463147255	135
0	1635	197.339463147255	135
0	1635	197.339463147255	135
0	1637	198.842044399506	136
0	1637	198.842044399506	136
0	1637	198.842044399506	136
0	1655	200.172040331564	137
0	1655	200.172040331564	137
0	1655	200.172040331564	137
0	1673	201.228013141234	138
0	1673	201.228013141234	138
0	1673	201.228013141234	138
0	1691	202.845346383205	139
0	1691	202.845346383205	139
0	1691	202.845346383205	139
0	1709	204.310350208463	140
0	1709	204.310350208463	140
0	1709	204.310350208463	140
0	1711	205.550830305241	141
0	1711	205.550830305241	141
0	1711	205.550830305241	141
0	1729	207.452091650259	142
0	1729	207.452091650259	142
0	1729	207.452091650259	142
0	1747	209.385542750512	143
0	1747	209.385542750512	143
0	1747	209.385542750512	143
0	1749	211.274068999956	144
0	1749	211.274068999956	144
0	1749	211.274068999956	144
0	1767	212.443132324298	145
0	1767	212.443132324298	145
0	1767	212.443132324298	145
0	1785	214.082768843197	146
0	1785	214.082768843197	146
0	1785	214.082768843197	146
0	1787	215.544942370769	147
0	1787	215.544942370769	147
0	1787	215.544942370769	147
0	1805	216.86699915972	148
0	1805	216.86699915972	148
0	1805	216.86699915972	148
0	1807	218.166546534667	149
0	1807	218.166546534667	149
0	1807	218.166546534667	149
0	1809	219.441255509773	150
0	1809	219.441255509773	150
0	1809	219.441255509773	150
0	1827	221.009250114126	151
0	1827	221.009250114126	151
0	1827	221.009250114126	151
0	1845	222.833144926851	152
0	1845	222.833144926851	152
0	1845	222.833144926851	152
0	1863	224.386415026303	153
0	1863	224.386415026303	153
0	1863	224.386415026303	153
0	1881	226.143820201199	154
0	1881	226.143820201199	154
0	1881	226.143820201199	154
0	1883	227.502222851769	155
0	1883	227.502222851769	155
0	1883	227.502222851769	155
0	1899	228.84073836325	156
0	1899	228.84073836325	156
0	1899	228.84073836325	156
0	1917	229.962180088193	157
0	1917	229.962180088193	157
0	1917	229.962180088193	157
0	1935	231.724647246918	158
0	1935	231.724647246918	158
0	1935	231.724647246918	158
0	1937	233.492253280163	159
0	1937	233.492253280163	159
0	1937	233.492253280163	159
0	1939	235.373026959982	160
0	1939	235.373026959982	160
0	1939	235.373026959982	160
0	1957	237.307530778378	161
0	1957	237.307530778378	161
0	1957	237.307530778378	161
0	1972	239.090879409259	162
0	1972	239.090879409259	162
0	1972	239.090879409259	162
0	1974	240.268241980264	163
0	1974	240.268241980264	163
0	1974	240.268241980264	163
0	1989	241.621013652684	164
0	1989	241.621013652684	164
0	1989	241.621013652684	164
0	2007	243.322799126303	165
0	2007	243.322799126303	165
0	2007	243.322799126303	165
0	2025	244.707054315984	166
0	2025	244.707054315984	166
0	2025	244.707054315984	166
0	2043	246.473929199308	167
0	2043	246.473929199308	167
0	2043	246.473929199308	167
0	2045	248.162852381507	168
0	2045	248.162852381507	168
0	2045	248.162852381507	168
0	2059	250.021672259236	169
0	2059	250.021672259236	169
0	2059	250.021672259236	169
0	2077	251.915525551338	170
0	2077	251.915525551338	170
0	2077	251.915525551338	170
0	2095	253.456288069172	171
0	2095	253.456288069172	171
0	2095	253.456288069172	171
0	2113	254.820097049849	172
0	2113	254.820097049849	172
0	2113	254.820097049849	172
0	2131	255.91668967778	173
0	2131	255.91668967778	173
0	2131	255.91668967778	173
0	2133	257.223137120168	174
0	2133	257.223137120168	174
0	2133	257.223137120168	174
0	2135	258.354299772914	175
0	2135	258.354299772914	175
0	2135	258.354299772914	175
0	2153	260.342772147536	176
0	2153	260.342772147536	176
0	2153	260.342772147536	176
0	2155	262.182296599412	177
0	2155	262.182296599412	177
0	2155	262.182296599412	177
0	2173	263.869113380473	178
0	2173	263.869113380473	178
0	2173	263.869113380473	178
0	2175	265.751244404271	179
0	2175	265.751244404271	179
0	2175	265.751244404271	179
0	2177	267.367548137355	180
0	2177	267.367548137355	180
0	2177	267.367548137355	180
0	2193	269.320944949669	181
0	2193	269.320944949669	181
0	2193	269.320944949669	181
0	2211	270.856104008771	182
0	2211	270.856104008771	182
0	2211	270.856104008771	182
0	2229	272.852007053477	183
0	2229	272.852007053477	183
0	2229	272.852007053477	183
0	2247	274.795860160525	184
0	2247	274.795860160525	184
0	2247	274.795860160525	184
0	2249	276.673574789344	185
0	2249	276.673574789344	185
0	2249	276.673574789344	185
0	2264	278.57875271366	186
0	2264	278.57875271366	186
0	2264	278.57875271366	186
0	2266	279.69221943236	187
0	2266	279.69221943236	187
0	2266	279.69221943236	187
0	2268	281.356852780711	188
0	2268	281.356852780711	188
0	2268	281.356852780711	188
0	2270	282.575706450418	189
0	2270	282.575706450418	189
0	2270	282.575706450418	189
0	2285	283.865133621879	190
0	2285	283.865133621879	190
0	2285	283.865133621879	190
0	2303	285.302440232048	191
0	2303	285.302440232048	191
0	2303	285.302440232048	191
0	2321	286.466363244606	192
0	2321	286.466363244606	192
0	2321	286.466363244606	192
0	2323	287.917048547333	193
0	2323	287.917048547333	193
0	2323	287.917048547333	193
0	2325	289.641895051263	194
0	2325	289.641895051263	194
0	2325	289.641895051263	194
0	2340	291.198234421815	195
0	2340	291.198234421815	195
0	2340	291.198234421815	195
0	2355	292.821872125994	196
0	2355	292.821872125994	196
0	2355	292.821872125994	196
0	2373	294.121227329047	197
0	2373	294.121227329047	197
0	2373	294.121227329047	197
0	2389	295.301776438169	198
0	2389	295.301776438169	198
0	2389	295.301776438169	198
0	2407	296.499513277467	199
0	2407	296.499513277467	199
0	2407	296.499513277467	199
0	2425	298.120923665734	200
0	2425	298.120923665734	200
0	2425	298.120923665734	200
0	2427	299.457036789423	201
0	2427	299.457036789423	201
0	2427	299.457036789423	201
0	2445	301.363688243702	202
0	2445	301.363688243702	202
0	2445	301.363688243702	202
0	2463	302.702906196387	203
0	2463	302.702906196387	203
0	2463	302.702906196387	203
0	2481	304.253943955209	204
0	2481	304.253943955209	204
0	2481	304.253943955209	204
0	2499	305.259868195197	205
0	2499	305.259868195197	205
0	2499	305.259868195197	205
0	2501	306.403527771971	206
0	2501	306.403527771971	206
0	2501	306.403527771971	206
0	2503	308.158011901808	207
0	2503	308.158011901808	207
0	2503	308.158011901808	207
0	2521	309.563973350833	208
0	2521	309.563973350833	208
0	2521	309.563973350833	208
0	2523	310.771862583385	209
0	2523	310.771862583385	209
0	2523	310.771862583385	209
0	2541	312.593737852211	210
0	2541	312.593737852211	210
0	2541	312.593737852211	210
0	2543	314.096319217152	211
0	2543	314.096319217152	211
0	2543	314.096319217152	211
0	2545	315.798657627926	212
0	2545	315.798657627926	212
0	2545	315.798657627926	212
0	2563	317.482912108918	213
0	2563	317.482912108918	213
0	2563	317.482912108918	213
0	2565	319.248882014687	214
0	2565	319.248882014687	214
0	2565	319.248882014687	214
0	2583	320.764374521478	215
0	2583	320.764374521478	215
0	2583	320.764374521478	215
0	2585	322.52921042909	216
0	2585	322.52921042909	216
0	2585	322.52921042909	216
0	2603	323.761266402119	217
0	2603	323.761266402119	217
0	2603	323.761266402119	217
0	2615	325.484230759471	218
0	2615	325.484230759471	218
0	2615	325.484230759471	218
0	2617	326.823879633715	219
0	2617	326.823879633715	219
0	2617	326.823879633715	219
0	2635	328.439733796671	220
0	2635	328.439733796671	220
0	2635	328.439733796671	220
0	2653	329.568480802851	221
0	2653	329.568480802851	221
0	2653	329.568480802851	221
0	2671	330.779741339304	222
0	2671	330.779741339304	222
0	2671	330.779741339304	222
0	2689	331.808085497853	223
0	2689	331.808085497853	223
0	2689	331.808085497853	223
0	2707	333.281973679934	224
0	2707	333.281973679934	224
0	2707	333.281973679934	224
0	2725	334.549562444596	225
0	2725	334.549562444596	225
0	2725	334.549562444596	225
0	2727	335.569500261138	226
0	2727	335.569500261138	226
0	2727	335.569500261138	226
0	2745	336.832127072302	227
0	2745	336.832127072302	227
0	2745	336.832127072302	227
0	2763	338.073577409995	228
0	2763	338.073577409995	228
0	2763	338.073577409995	228
0	2765	339.184984802188	229
0	2765	339.184984802188	229
0	2765	339.184984802188	229
0	2783	340.247267681094	230
0	2783	340.247267681094	230
0	2783	340.247267681094	230
0	2801	341.874870395906	231
0	2801	341.874870395906	231
0	2801	341.874870395906	231
0	2803	343.002108093271	232
0	2803	343.002108093271	232
0	2803	343.002108093271	232
0	2805	344.705336117106	233
0	2805	344.705336117106	233
0	2805	344.705336117106	233
0	2820	346.120048406687	234
0	2820	346.120048406687	234
0	2820	346.120048406687	234
0	2838	347.570951236332	235
0	2838	347.570951236332	235
0	2838	347.570951236332	235
0	2856	349.209066706862	236
0	2856	349.209066706862	236
0	2856	349.209066706862	236
0	2874	350.405415440131	237
0	2874	350.405415440131	237
0	2874	350.405415440131	237
0	2876	351.479851882825	238
0	2876	351.479851882825	238
0	2876	351.479851882825	238
0	2894	353.233161235614	239
0	2894	353.233161235614	239
0	2894	353.233161235614	239
0	2912	355.171891132988	240
0	2912	355.171891132988	240
0	2912	355.171891132988	240
0	2930	356.779254354456	241
0	2930	356.779254354456	241
0	2930	356.779254354456	241
0	2948	358.445607504028	242
0	2948	358.445607504028	242
0	2948	358.445607504028	242
0	2950	359.695541024593	243
0	2950	359.695541024593	243
0	2950	359.695541024593	243
0	2966	361.433883120225	244
0	2966	361.433883120225	244
0	2966	361.433883120225	244
0	2968	362.751722831431	245
0	2968	362.751722831431	245
0	2968	362.751722831431	245
0	2974	364.307153339417	246
0	2974	364.307153339417	246
0	2974	364.307153339417	246
0	2992	366.243530576735	247
0	2992	366.243530576735	247
0	2992	366.243530576735	247
0	2994	368.129171132961	248
0	2994	368.129171132961	248
0	2994	368.129171132961	248
0	3009	369.586696937134	249
0	3009	369.586696937134	249
0	3009	369.586696937134	249
0	3024	370.759373216576	250
0	3024	370.759373216576	250
0	3024	370.759373216576	250
0	3026	372.39400758074	251
0	3026	372.39400758074	251
0	3026	372.39400758074	251
0	3028	374.062732968166	252
0	3028	374.062732968166	252
0	3028	374.062732968166	252
0	3046	375.827775631951	253
0	3046	375.827775631951	253
0	3046	375.827775631951	253
0	3064	377.12491259483	254
0	3064	377.12491259483	254
0	3064	377.12491259483	254
0	3066	378.416567596526	255
0	3066	378.416567596526	255
0	3066	378.416567596526	255
0	3084	380.171599748463	256
0	3084	380.171599748463	256
0	3084	380.171599748463	256
0	3086	381.214002272964	257
0	3086	381.214002272964	257
0	3086	381.214002272964	257
0	3104	383.000451765175	258
0	3104	383.000451765175	258
0	3104	383.000451765175	258
0	3122	384.356365428924	259
0	3122	384.356365428924	259
0	3122	384.356365428924	259
0	3124	386.157640223311	260
0	3124	386.157640223311	260
0	3124	386.157640223311	260
0	3142	387.31158256872	261
0	3142	387.31158256872	261
0	3142	387.31158256872	261
0	3160	388.894450129861	262
0	3160	388.894450129861	262
0	3160	388.894450129861	262
0	3178	390.769460318297	263
0	3178	390.769460318297	263
0	3178	390.769460318297	263
0	3180	392.429768652808	264
0	3180	392.429768652808	264
0	3180	392.429768652808	264
0	3195	394.286912022777	265
0	3195	394.286912022777	265
0	3195	394.286912022777	265
0	3213	396.214361272207	266
0	3213	396.214361272207	266
0	3213	396.214361272207	266
0	3231	397.224673075289	267
0	3231	397.224673075289	267
0	3231	397.224673075289	267
0	3249	398.706624480816	268
0	3249	398.706624480816	268
0	3249	398.706624480816	268
0	3267	400.435358856026	269
0	3267	400.435358856026	269
0	3267	400.435358856026	269
0	3282	402.265440413183	270
0	3282	402.265440413183	270
0	3282	402.265440413183	270
0	3300	403.472656071106	271
0	3300	403.472656071106	271
0	3300	403.472656071106	271
0	3302	404.775523045486	272
0	3302	404.775523045486	272
0	3302	404.775523045486	272
0	3317	405.931428752992	273
0	3317	405.931428752992	273
0	3317	405.931428752992	273
0	3335	407.774251802511	274
0	3335	407.774251802511	274
0	3335	407.774251802511	274
0	3353	409.091838147411	275
0	3353	409.091838147411	275
0	3353	409.091838147411	275
0	3355	410.15216527196	276
0	3355	410.15216527196	276
0	3355	410.15216527196	276
0	3357	411.299304570457	277
0	3357	411.299304570457	277
0	3357	411.299304570457	277
0	3375	412.519968510991	278
0	3375	412.519968510991	278
0	3375	412.519968510991	278
0	3393	414.009056680057	279
0	3393	414.009056680057	279
0	3393	414.009056680057	279
0	3411	415.606132825989	280
0	3411	415.606132825989	280
0	3411	415.606132825989	280
0	3429	416.757341977128	281
0	3429	416.757341977128	281
0	3429	416.757341977128	281
0	3431	417.824828276796	282
0	3431	417.824828276796	282
0	3431	417.824828276796	282
0	3449	419.734733197525	283
0	3449	419.734733197525	283
0	3449	419.734733197525	283
0	3451	420.791215473706	284
0	3451	420.791215473706	284
0	3451	420.791215473706	284
0	3469	422.481347334026	285
0	3469	422.481347334026	285
0	3469	422.481347334026	285
0	3478	423.646162072583	286
0	3478	423.646162072583	286
0	3478	423.646162072583	286
0	3496	425.042232780172	287
0	3496	425.042232780172	287
0	3496	425.042232780172	287
0	3514	426.132292473609	288
0	3514	426.132292473609	288
0	3514	426.132292473609	288
0	3529	427.900242527634	289
0	3529	427.900242527634	289
0	3529	427.900242527634	289
0	3541	428.981018702652	290
0	3541	428.981018702652	290
0	3541	428.981018702652	290
0	3543	430.639456795448	291
0	3543	430.639456795448	291
0	3543	430.639456795448	291
0	3545	432.303593851313	292
0	3545	432.303593851313	292
0	3545	432.303593851313	292
0	3563	433.866682931235	293
0	3563	433.866682931235	293
0	3563	433.866682931235	293
0	3578	435.256285966294	294
0	3578	435.256285966294	294
0	3578	435.256285966294	294
0	3580	436.262275588386	295
0	3580	436.262275588386	295
0	3580	436.262275588386	295
0	3586	437.504412273564	296
0	3586	437.504412273564	296
0	3586	437.504412273564	296
0	3604	438.651250734613	297
0	3604	438.651250734613	297
0	3604	438.651250734613	297
0	3622	440.289675230779	298
0	3622	440.289675230779	298
0	3622	440.289675230779	298
0	3624	441.938545139892	299
0	3624	441.938545139892	299
0	3624	441.938545139892	299
0	3642	443.480095595041	300
0	3642	443.480095595041	300
0	3642	443.480095595041	300
0	3644	444.803152818385	301
0	3644	444.803152818385	301
0	3644	444.803152818385	301
0	3662	446.511726556032	302
0	3662	446.511726556032	302
0	3662	446.511726556032	302
0	3680	447.794619414176	303
0	3680	447.794619414176	303
0	3680	447.794619414176	303
0	3682	449.534416603775	304
0	3682	449.534416603775	304
0	3682	449.534416603775	304
0	3684	450.653152750259	305
0	3684	450.653152750259	305
0	3684	450.653152750259	305
0	3702	452.289485494759	306
0	3702	452.289485494759	306
0	3702	452.289485494759	306
0	3704	454.050268715866	307
0	3704	454.050268715866	307
0	3704	454.050268715866	307
0	3706	455.835386491301	308
0	3706	455.835386491301	308
0	3706	455.835386491301	308
0	3724	457.232014719317	309
0	3724	457.232014719317	309
0	3724	457.232014719317	309
0	3742	459.029133794982	310
0	3742	459.029133794982	310
0	3742	459.029133794982	310
0	3760	460.968829903672	311
0	3760	460.968829903672	311
0	3760	460.968829903672	311
0	3778	462.016815042742	312
0	3778	462.016815042742	312
0	3778	462.016815042742	312
0	3796	463.137484558778	313
0	3796	463.137484558778	313
0	3796	463.137484558778	313
0	3814	465.070213915002	314
0	3814	465.070213915002	314
0	3814	465.070213915002	314
0	3816	466.719046165621	315
0	3816	466.719046165621	315
0	3816	466.719046165621	315
0	3834	468.089832523292	316
0	3834	468.089832523292	316
0	3834	468.089832523292	316
0	3852	469.312271060342	317
0	3852	469.312271060342	317
0	3852	469.312271060342	317
0	3870	470.362092415256	318
0	3870	470.362092415256	318
0	3870	470.362092415256	318
0	3885	471.948955354433	319
0	3885	471.948955354433	319
0	3885	471.948955354433	319
0	3887	473.425546826947	320
0	3887	473.425546826947	320
0	3887	473.425546826947	320
0	3905	475.110101814534	321
0	3905	475.110101814534	321
0	3905	475.110101814534	321
0	3907	476.283883756877	322
0	3907	476.283883756877	322
0	3907	476.283883756877	322
0	3925	477.71331879116	323
0	3925	477.71331879116	323
0	3925	477.71331879116	323
0	3941	478.924851128518	324
0	3941	478.924851128518	324
0	3941	478.924851128518	324
0	3943	480.264768747765	325
0	3943	480.264768747765	325
0	3943	480.264768747765	325
0	3961	481.604175978725	326
0	3961	481.604175978725	326
0	3961	481.604175978725	326
0	3979	483.319258811803	327
0	3979	483.319258811803	327
0	3979	483.319258811803	327
0	3981	484.793255060132	328
0	3981	484.793255060132	328
0	3981	484.793255060132	328
0	3999	486.036265557784	329
0	3999	486.036265557784	329
0	3999	486.036265557784	329
0	4017	487.812427332311	330
0	4017	487.812427332311	330
0	4017	487.812427332311	330
0	4035	489.146468031838	331
0	4035	489.146468031838	331
0	4035	489.146468031838	331
0	4053	491.085257743172	332
0	4053	491.085257743172	332
0	4053	491.085257743172	332
0	4071	492.891736480094	333
0	4071	492.891736480094	333
0	4071	492.891736480094	333
0	4089	494.342700784247	334
0	4089	494.342700784247	334
0	4089	494.342700784247	334
0	4107	495.774583166618	335
0	4107	495.774583166618	335
0	4107	495.774583166618	335
0	4125	497.001148596559	336
0	4125	497.001148596559	336
0	4125	497.001148596559	336
0	4127	498.162150564757	337
0	4127	498.162150564757	337
0	4127	498.162150564757	337
0	4145	500.095826572892	338
0	4145	500.095826572892	338
0	4145	500.095826572892	338
0	4163	502.006616996289	339
0	4163	502.006616996289	339
0	4163	502.006616996289	339
0	4181	503.011491853664	340
0	4181	503.011491853664	340
0	4181	503.011491853664	340
0	4199	504.776220155102	341
0	4199	504.776220155102	341
0	4199	504.776220155102	341
0	4217	506.584977035564	342
0	4217	506.584977035564	342
0	4217	506.584977035564	342
0	4235	508.53255314209	343
0	4235	508.53255314209	343
0	4235	508.53255314209	343
0	4243	510.130813839766	344
0	4243	510.130813839766	344
0	4243	510.130813839766	344
0	4261	511.405476725348	345
0	4261	511.405476725348	345
0	4261	511.405476725348	345
0	4263	512.424583315071	346
0	4263	512.424583315071	346
0	4263	512.424583315071	346
0	4265	514.216775939953	347
0	4265	514.216775939953	347
0	4265	514.216775939953	347
0	4283	515.715689633893	348
0	4283	515.715689633893	348
0	4283	515.715689633893	348
0	4301	517.404492154405	349
0	4301	517.404492154405	349
0	4301	517.404492154405	349
0	4303	518.851113987076	350
0	4303	518.851113987076	350
0	4303	518.851113987076	350
0	4321	520.360009659002	351
0	4321	520.360009659002	351
0	4321	520.360009659002	351
0	4339	521.833576016281	352
0	4339	521.833576016281	352
0	4339	521.833576016281	352
0	4341	523.058922793636	353
0	4341	523.058922793636	353