version 3
run General-0-20231019-20:11:41-68151
attr configname General
attr datetime 20231019-20:11:41
attr datetimef 20231019-201141
attr experiment General
attr inifile omnetpp.ini
attr iterationvars ""
attr iterationvarsd ""
attr iterationvarsf ""
attr measurement ""
attr network Reliability
attr processid 68151
attr repetition 0
attr replication #0
attr resultdir results
attr runnumber 0
attr seedset 0
config network Reliability
config Reliability.node[*].transmissionTime "uniform(1s, 2s)"
config Reliability.node[*].delayTime "uniform(0.01s, 0.2s)"
config Reliability.node[*].lossProbability 0.3
config record-eventlog true
config sim-time-limit 1000s
config repeat 5

vector 0 Reliability.node[0] txVector ETV
vector 1 Reliability.node[1] txVector ETV
vector 2 Reliability.node[1] rxVector ETV
vector 3 Reliability.node[3] txVector ETV
vector 4 Reliability.node[3] rxVector ETV
vector 5 Reliability.node[0] rxVector ETV
vector 6 Reliability.node[2] txVector ETV
vector 7 Reliability.node[2] rxVector ETV
vector 8 Reliability.node[5] txVector ETV
vector 9 Reliability.node[5] rxVector ETV
vector 10 Reliability.node[4] txVector ETV
vector 11 Reliability.node[4] rxVector ETV
vector 12 Reliability.node[6] rxVector ETV
vector 13 Reliability.node[6] e2eVector ETV
0	1	0.114274565438	1
0	1	0.114274565438	1
0	1	0.114274565438	1
0	19	1.82946393041	2
0	19	1.82946393041	2
0	19	1.82946393041	2
0	37	2.969814707833	3
0	37	2.969814707833	3
0	37	2.969814707833	3
0	39	4.581910430296	4
0	39	4.581910430296	4
0	39	4.581910430296	4
0	55	5.968399408349	5
0	55	5.968399408349	5
0	55	5.968399408349	5
0	71	7.070444215165	6
0	71	7.070444215165	6
0	71	7.070444215165	6
0	73	8.744103846216	7
0	73	8.744103846216	7
0	73	8.744103846216	7
0	91	10.720563311438	8
0	91	10.720563311438	8
0	91	10.720563311438	8
0	109	12.641720923438	9
0	109	12.641720923438	9
0	109	12.641720923438	9
0	127	14.217878259328	10
0	127	14.217878259328	10
0	127	14.217878259328	10
0	140	15.44841128246	11
0	140	15.44841128246	11
0	140	15.44841128246	11
0	158	17.039284045418	12
0	158	17.039284045418	12
0	158	17.039284045418	12
0	173	18.547599495697	13
0	173	18.547599495697	13
0	173	18.547599495697	13
0	191	19.907577554771	14
0	191	19.907577554771	14
0	191	19.907577554771	14
0	209	21.174840088777	15
0	209	21.174840088777	15
0	209	21.174840088777	15
0	227	22.552591926029	16
0	227	22.552591926029	16
0	227	22.552591926029	16
0	245	24.072303118261	17
0	245	24.072303118261	17
0	245	24.072303118261	17
0	247	25.535878541025	18
0	247	25.535878541025	18
0	247	25.535878541025	18
0	263	26.722336759635	19
0	263	26.722336759635	19
0	263	26.722336759635	19
0	265	28.626056499158	20
0	265	28.626056499158	20
0	265	28.626056499158	20
0	271	30.375310915832	21
0	271	30.375310915832	21
0	271	30.375310915832	21
0	273	31.475604860422	22
0	273	31.475604860422	22
0	273	31.475604860422	22
0	291	33.031254097664	23
0	291	33.031254097664	23
0	291	33.031254097664	23
0	307	34.3242743817	24
0	307	34.3242743817	24
0	307	34.3242743817	24
0	309	36.304974055228	25
0	309	36.304974055228	25
0	309	36.304974055228	25
0	327	38.16716556934	26
0	327	38.16716556934	26
0	327	38.16716556934	26
0	329	39.97758966436	27
0	329	39.97758966436	27
0	329	39.97758966436	27
0	347	41.398129126135	28
0	347	41.398129126135	28
0	347	41.398129126135	28
0	365	42.604723731832	29
0	365	42.604723731832	29
0	365	42.604723731832	29
0	383	43.640086168035	30
0	383	43.640086168035	30
0	383	43.640086168035	30
0	399	45.066392046011	31
0	399	45.066392046011	31
0	399	45.066392046011	31
0	401	46.887159165771	32
0	401	46.887159165771	32
0	401	46.887159165771	32
0	419	48.879588687171	33
0	419	48.879588687171	33
0	419	48.879588687171	33
0	421	50.824890220615	34
0	421	50.824890220615	34
0	421	50.824890220615	34
0	436	51.916917804007	35
0	436	51.916917804007	35
0	436	51.916917804007	35
0	438	53.535398067751	36
0	438	53.535398067751	36
0	438	53.535398067751	36
0	456	54.90972126283	37
0	456	54.90972126283	37
0	456	54.90972126283	37
0	474	56.616295970355	38
0	474	56.616295970355	38
0	474	56.616295970355	38
0	487	57.974403445453	39
0	487	57.974403445453	39
0	487	57.974403445453	39
0	502	59.813592566254	40
0	502	59.813592566254	40
0	502	59.813592566254	40
0	520	61.261108435301	41
0	520	61.261108435301	41
0	520	61.261108435301	41
0	522	62.571489260841	42
0	522	62.571489260841	42
0	522	62.571489260841	42
0	540	64.466352455627	43
0	540	64.466352455627	43
0	540	64.466352455627	43
0	542	66.345587219421	44
0	542	66.345587219421	44
0	542	66.345587219421	44
0	544	67.493855859695	45
0	544	67.493855859695	45
0	544	67.493855859695	45
0	559	68.524091119722	46
0	559	68.524091119722	46
0	559	68.524091119722	46
0	577	69.81386699605	47
0	577	69.81386699605	47
0	577	69.81386699605	47
0	595	71.507823406097	48
0	595	71.507823406097	48
0	595	71.507823406097	48
0	597	72.614252818592	49
0	597	72.614252818592	49
0	597	72.614252818592	49
0	599	74.003387497814	50
0	599	74.003387497814	50
0	599	74.003387497814	50
0	617	75.566170621972	51
0	617	75.566170621972	51
0	617	75.566170621972	51
0	635	77.238752928638	52
0	635	77.238752928638	52
0	635	77.238752928638	52
0	653	79.166971636779	53
0	653	79.166971636779	53
0	653	79.166971636779	53
0	655	80.865220118623	54
0	655	80.865220118623	54
0	655	80.865220118623	54
0	657	81.947277864285	55
0	657	81.947277864285	55
0	657	81.947277864285	55
0	659	83.009913870676	56
0	659	83.009913870676	56
0	659	83.009913870676	56
0	677	84.147165221938	57
0	677	84.147165221938	57
0	677	84.147165221938	57
0	679	85.244423220943	58
0	679	85.244423220943	58
0	679	85.244423220943	58
0	697	86.863606017393	59
0	697	86.863606017393	59
0	697	86.863606017393	59
0	715	88.577372887482	60
0	715	88.577372887482	60
0	715	88.577372887482	60
0	733	89.662605948358	61
0	733	89.662605948358	61
0	733	89.662605948358	61
0	735	90.747916875252	62
0	735	90.747916875252	62
0	735	90.747916875252	62
0	737	91.75660679404	63
0	737	91.75660679404	63
0	737	91.75660679404	63
0	739	93.021646494589	64
0	739	93.021646494589	64
0	739	93.021646494589	64
0	741	94.535406229397	65
0	741	94.535406229397	65
0	741	94.535406229397	65
0	756	96.391682412553	66
0	756	96.391682412553	66
0	756	96.391682412553	66
0	774	97.487302295708	67
0	774	97.487302295708	67
0	774	97.487302295708	67
0	792	99.458033736407	68
0	792	99.458033736407	68
0	792	99.458033736407	68
0	810	101.436581283885	69
0	810	101.436581283885	69
0	810	101.436581283885	69
0	812	102.889675532545	70
0	812	102.889675532545	70
0	812	102.889675532545	70
0	828	104.095241850785	71
0	828	104.095241850785	71
0	828	104.095241850785	71
0	846	105.212767494687	72
0	846	105.212767494687	72
0	846	105.212767494687	72
0	852	106.881001469757	73
0	852	106.881001469757	73
0	852	106.881001469757	73
0	867	108.064034763569	74
0	867	108.064034763569	74
0	867	108.064034763569	74
0	869	109.791284675788	75
0	869	109.791284675788	75
0	869	109.791284675788	75
0	887	111.519172832448	76
0	887	111.519172832448	76
0	887	111.519172832448	76
0	895	112.87638025273	77
0	895	112.87638025273	77
0	895	112.87638025273	77
0	907	114.359898383109	78
0	907	114.359898383109	78
0	907	114.359898383109	78
0	922	115.997754135713	79
0	922	115.997754135713	79
0	922	115.997754135713	79
0	924	117.776933568142	80
0	924	117.776933568142	80
0	924	117.776933568142	80
0	942	119.461486304722	81
0	942	119.461486304722	81
0	942	119.461486304722	81
0	944	120.672941098999	82
0	944	120.672941098999	82
0	944	120.672941098999	82
0	962	122.248474984741	83
0	962	122.248474984741	83
0	962	122.248474984741	83
0	980	123.765801068707	84
0	980	123.765801068707	84
0	980	123.765801068707	84
0	998	124.930333783929	85
0	998	124.930333783929	85
0	998	124.930333783929	85
0	1016	126.410394669822	86
0	1016	126.410394669822	86
0	1016	126.410394669822	86
0	1034	127.777440911703	87
0	1034	127.777440911703	87
0	1034	127.777440911703	87
0	1036	129.100270449029	88
0	1036	129.100270449029	88
0	1036	129.100270449029	88
0	1054	130.949589610178	89
0	1054	130.949589610178	89
0	1054	130.949589610178	89
0	1072	132.531909343632	90
0	1072	132.531909343632	90
0	1072	132.531909343632	90
0	1090	133.764292492377	91
0	1090	133.764292492377	91
0	1090	133.764292492377	91
0	1092	135.194408479458	92
0	1092	135.194408479458	92
0	1092	135.194408479458	92
0	1098	136.687040909738	93
0	1098	136.687040909738	93
0	1098	136.687040909738	93
0	1116	138.170793774617	94
0	1116	138.170793774617	94
0	1116	138.170793774617	94
0	1118	139.201001980421	95
0	1118	139.201001980421	95
0	1118	139.201001980421	95
0	1120	141.142669776534	96
0	1120	141.142669776534	96
0	1120	141.142669776534	96
0	1122	142.328117748336	97
0	1122	142.328117748336	97
0	1122	142.328117748336	97
0	1124	144.019625859181	98
0	1124	144.019625859181	98
0	1124	144.019625859181	98
0	1126	145.417614017925	99
0	1126	145.417614017925	99
0	1126	145.417614017925	99
0	1141	147.392708694874	100
0	1141	147.392708694874	100
0	1141	147.392708694874	100
0	1159	149.365725325267	101
0	1159	149.365725325267	101
0	1159	149.365725325267	101
0	1177	150.803981272583	102
0	1177	150.803981272583	102
0	1177	150.803981272583	102
0	1192	152.627734435103	103
0	1192	152.627734435103	103
0	1192	152.627734435103	103
0	1200	154.020053371866	104
0	1200	154.020053371866	104
0	1200	154.020053371866	104
0	1218	155.72975391041	105
0	1218	155.72975391041	105
0	1218	155.72975391041	105
0	1236	157.320339287943	106
0	1236	157.320339287943	106
0	1236	157.320339287943	106
0	1238	159.099748020372	107
0	1238	159.099748020372	107
0	1238	159.099748020372	107
0	1253	160.467223343518	108
0	1253	160.467223343518	108
0	1253	160.467223343518	108
0	1271	161.768532266686	109
0	1271	161.768532266686	109
0	1271	161.768532266686	109
0	1289	162.916911199535	110
0	1289	162.916911199535	110
0	1289	162.916911199535	110
0	1301	164.541408673706	111
0	1301	164.541408673706	111
0	1301	164.541408673706	111
0	1316	166.110695593603	112
0	1316	166.110695593603	112
0	1316	166.110695593603	112
0	1334	167.30475368149	113
0	1334	167.30475368149	113
0	1334	167.30475368149	113
0	1352	169.105552281564	114
0	1352	169.105552281564	114
0	1352	169.105552281564	114
0	1370	170.123320957724	115
0	1370	170.123320957724	115
0	1370	170.123320957724	115
0	1372	171.290756775843	116
0	1372	171.290756775843	116
0	1372	171.290756775843	116
0	1390	172.511581056131	117
0	1390	172.511581056131	117
0	1390	172.511581056131	117
0	1392	174.494025938524	118
0	1392	174.494025938524	118
0	1392	174.494025938524	118
0	1410	176.007210656613	119
0	1410	176.007210656613	119
0	1410	176.007210656613	119
0	1428	177.310502578815	120
0	1428	177.310502578815	120
0	1428	177.310502578815	120
0	1440	179.09199309613	121
0	1440	179.09199309613	121
0	1440	179.09199309613	121
0	1442	180.793833579248	122
0	1442	180.793833579248	122
0	1442	180.793833579248	122
0	1460	182.22397919496	123
0	1460	182.22397919496	123
0	1460	182.22397919496	123
0	1475	183.989049147427	124
0	1475	183.989049147427	124
0	1475	183.989049147427	124
0	1477	185.760141047494	125
0	1477	185.760141047494	125
0	1477	185.760141047494	125
0	1485	186.820219008097	126
0	1485	186.820219008097	126
0	1485	186.820219008097	126
0	1503	188.680581075683	127
0	1503	188.680581075683	127
0	1503	188.680581075683	127
0	1511	190.170265987128	128
0	1511	190.170265987128	128
0	1511	190.170265987128	128
0	1529	191.900268493298	129
0	1529	191.900268493298	129
0	1529	191.900268493298	129
0	1547	193.578163459044	130
0	1547	193.578163459044	130
0	1547	193.578163459044	130
0	1565	195.296282498943	131
0	1565	195.296282498943	131
0	1565	195.296282498943	131
0	1583	196.743075817902	132
0	1583	196.743075817902	132
0	1583	196.743075817902	132
0	1601	197.866871507451	133
0	1601	197.866871507451	133
0	1601	197.866871507451	133
0	1619	199.584431008747	134
0	1619	199.584431008747	134
0	1619	199.584431008747	134
0	1637	201.429517015893	135
0	1637	201.429517015893	135
0	1637	201.429517015893	135
0	1655	203.020443743406	136
0	1655	203.020443743406	136
0	1655	203.020443743406	136
0	1670	204.321804314464	137
0	1670	204.321804314464	137
0	1670	204.321804314464	137
0	1688	205.627071326444	138
0	1688	205.627071326444	138
0	1688	205.627071326444	138
0	1690	207.323898661029	139
0	1690	207.323898661029	139
0	1690	207.323898661029	139
0	1706	208.670506470683	140
0	1706	208.670506470683	140
0	1706	208.670506470683	140
0	1708	210.07699994355	141
0	1708	210.07699994355	141
0	1708	210.07699994355	141
0	1710	211.750010079318	142
0	1710	211.750010079318	142
0	1710	211.750010079318	142
0	1712	213.701112335627	143
0	1712	213.701112335627	143
0	1712	213.701112335627	143
0	1728	215.116237589703	144
0	1728	215.116237589703	144
0	1728	215.116237589703	144
0	1730	216.358250798504	145
0	1730	216.358250798504	145
0	1730	216.358250798504	145
0	1748	218.121391025218	146
0	1748	218.121391025218	146
0	1748	218.121391025218	146
0	1766	219.612771095089	147
0	1766	219.612771095089	147
0	1766	219.612771095089	147
0	1784	220.729234347898	148
0	1784	220.729234347898	148
0	1784	220.729234347898	148
0	1790	222.046608094671	149
0	1790	222.046608094671	149
0	1790	222.046608094671	149
0	1805	223.30187260903	150
0	1805	223.30187260903	150
0	1805	223.30187260903	150
0	1820	224.698756788006	151
0	1820	224.698756788006	151
0	1820	224.698756788006	151
0	1822	226.50488094295	152
0	1822	226.50488094295	152
0	1822	226.50488094295	152
0	1824	228.166948362567	153
0	1824	228.166948362567	153
0	1824	228.166948362567	153
0	1842	229.358672472729	154
0	1842	229.358672472729	154
0	1842	229.358672472729	154
0	1853	230.616813173598	155
0	1853	230.616813173598	155
0	1853	230.616813173598	155
0	1871	232.048655825049	156
0	1871	232.048655825049	156
0	1871	232.048655825049	156
0	1889	233.51353422281	157
0	1889	233.51353422281	157
0	1889	233.51353422281	157
0	1907	235.136502539121	158
0	1907	235.136502539121	158
0	1907	235.136502539121	158
0	1925	236.646301127585	159
0	1925	236.646301127585	159
0	1925	236.646301127585	159
0	1943	238.136850185074	160
0	1943	238.136850185074	160
0	1943	238.136850185074	160
0	1945	239.288347247835	161
0	1945	239.288347247835	161
0	1945	239.288347247835	161
0	1947	240.635806916827	162
0	1947	240.635806916827	162
0	1947	240.635806916827	162
0	1965	242.090039228867	163
0	1965	242.090039228867	163
0	1965	242.090039228867	163
0	1983	244.027162245554	164
0	1983	244.027162245554	164
0	1983	244.027162245554	164
0	2001	245.324487356315	165
0	2001	245.324487356315	165
0	2001	245.324487356315	165
0	2019	246.454249983267	166
0	2019	246.454249983267	166
0	2019	246.454249983267	166
0	2037	248.07478355764	167
0	2037	248.07478355764	167
0	2037	248.07478355764	167
0	2039	249.201151082372	168
0	2039	249.201151082372	168
0	2039	249.201151082372	168
0	2057	250.734874203881	169
0	2057	250.734874203881	169
0	2057	250.734874203881	169
0	2059	251.864493251858	170
0	2059	251.864493251858	170
0	2059	251.864493251858	170
0	2077	253.83462412221	171
0	2077	253.83462412221	171
0	2077	253.83462412221	171
0	2095	254.862277277593	172
0	2095	254.862277277593	172
0	2095	254.862277277593	172
0	2113	256.233494667417	173
0	2113	256.233494667417	173
0	2113	256.233494667417	173
0	2131	257.295383837388	174
0	2131	257.295383837388	174
0	2131	257.295383837388	174
0	2149	259.088980876689	175
0	2149	259.088980876689	175
0	2149	259.088980876689	175
0	2164	260.657143123762	176
0	2164	260.657143123762	176
0	2164	260.657143123762	176
0	2182	261.823544322129	177
0	2182	261.823544322129	177
0	2182	261.823544322129	177
0	2200	263.116115168284	178
0	2200	263.116115168284	178
0	2200	263.116115168284	178
0	2202	264.624887735199	179
0	2202	264.624887735199	179
0	2202	264.624887735199	179
0	2220	265.808392200235	180
0	2220	265.808392200235	180
0	2220	265.808392200235	180
0	2238	267.519667169859	181
0	2238	267.519667169859	181
0	2238	267.519667169859	181
0	2240	269.367406507337	182
0	2240	269.367406507337	182
0	2240	269.367406507337	182
0	2258	270.74460082486	183
0	2258	270.74460082486	183
0	2258	270.74460082486	183
0	2260	272.165874220512	184
0	2260	272.165874220512	184
0	2260	272.165874220512	184
0	2278	274.12226373268	185
0	2278	274.12226373268	185
0	2278	274.12226373268	185
0	2280	275.66114074256	186
0	2280	275.66114074256	186
0	2280	275.66114074256	186
0	2298	277.450679047347	187
0	2298	277.450679047347	187
0	2298	277.450679047347	187
0	2313	278.83650701408	188
0	2313	278.83650701408	188
0	2313	278.83650701408	188
0	2331	280.288988498121	189
0	2331	280.288988498121	189
0	2331	280.288988498121	189
0	2349	281.565783394349	190
0	2349	281.565783394349	190
0	2349	281.565783394349	190
0	2364	283.525202982675	191
0	2364	283.525202982675	191
0	2364	283.525202982675	191
0	2366	284.78828176515	192
0	2366	284.78828176515	192
0	2366	284.78828176515	192
0	2381	286.707001810975	193
0	2381	286.707001810975	193
0	2381	286.707001810975	193
0	2399	288.34508640467	194
0	2399	288.34508640467	194
0	2399	288.34508640467	194
0	2417	290.102682373336	195
0	2417	290.102682373336	195
0	2417	290.102682373336	195
0	2419	291.824833141257	196
0	2419	291.824833141257	196
0	2419	291.824833141257	196
0	2437	293.475510557963	197
0	2437	293.475510557963	197
0	2437	293.475510557963	197
0	2439	295.368150363293	198
0	2439	295.368150363293	198
0	2439	295.368150363293	198
0	2441	296.696895015043	199
0	2441	296.696895015043	199
0	2441	296.696895015043	199
0	2457	298.322312621017	200
0	2457	298.322312621017	200
0	2457	298.322312621017	200
0	2475	299.741469021737	201
0	2475	299.741469021737	201
0	2475	299.741469021737	201
0	2477	301.113403806313	202
0	2477	301.113403806313	202
0	2477	301.113403806313	202
0	2485	302.618961800904	203
0	2485	302.618961800904	203
0	2485	302.618961800904	203
0	2487	303.760829063681	204
0	2487	303.760829063681	204
0	2487	303.760829063681	204
0	2505	305.069695552428	205
0	2505	305.069695552428	205
0	2505	305.069695552428	205
0	2513	306.638114598895	206
0	2513	306.638114598895	206
0	2513	306.638114598895	206
0	2525	307.653678318801	207
0	2525	307.653678318801	207
0	2525	307.653678318801	207
0	2543	309.006085435011	208
0	2543	309.006085435011	208
0	2543	309.006085435011	208
0	2545	310.907001338516	209
0	2545	310.907001338516	209
0	2545	310.907001338516	209
0	2563	312.391906615196	210
0	2563	312.391906615196	210
0	2563	312.391906615196	210
0	2581	314.15367977795	211
0	2581	314.15367977795	211
0	2581	314.15367977795	211
0	2599	315.424896307139	212
0	2599	315.424896307139	212
0	2599	315.424896307139	212
0	2614	317.363125660772	213
0	2614	317.363125660772	213
0	2614	317.363125660772	213
0	2616	318.621084439884	214
0	2616	318.621084439884	214
0	2616	318.621084439884	214
0	2632	320.207807555645	215
0	2632	320.207807555645	215
0	2632	320.207807555645	215
0	2634	321.575058973245	216
0	2634	321.575058973245	216
0	2634	321.575058973245	216
0	2636	323.00478447237	217
0	2636	323.00478447237	217
0	2636	323.00478447237	217
0	2638	324.558326430702	218
0	2638	324.558326430702	218
0	2638	324.558326430702	218
0	2640	326.175386115293	219
0	2640	326.175386115293	219
0	2640	326.175386115293	219
0	2658	327.779413047097	220
0	2658	327.779413047097	220
0	2658	327.779413047097	220
0	2676	329.436898141251	221
0	2676	329.436898141251	221
0	2676	329.436898141251	221
0	2694	330.526540618473	222
0	2694	330.526540618473	222
0	2694	330.526540618473	222
0	2712	331.865761438701	223
0	2712	331.865761438701	223
0	2712	331.865761438701	223
0	2727	333.498527079438	224
0	2727	333.498527079438	224
0	2727	333.498527079438	224
0	2729	334.94096261504	225
0	2729	334.94096261504	225
0	2729	334.94096261504	225
0	2747	336.395866884933	226
0	2747	336.395866884933	226
0	2747	336.395866884933	226
0	2765	337.825210674749	227
0	2765	337.825210674749	227
0	2765	337.825210674749	227
0	2783	338.89398852162	228
0	2783	338.89398852162	228
0	2783	338.89398852162	228
0	2801	340.313573793824	229
0	2801	340.313573793824	229
0	2801	340.313573793824	229
0	2816	341.883620671312	230
0	2816	341.883620671312	230
0	2816	341.883620671312	230
0	2834	343.410514344777	231
0	2834	343.410514344777	231
0	2834	343.410514344777	231
0	2852	344.899739840849	232
0	2852	344.899739840849	232
0	2852	344.899739840849	232
0	2854	346.88006187681	233
0	2854	346.88006187681	233
0	2854	346.88006187681	233
0	2872	348.312658517937	234
0	2872	348.312658517937	234
0	2872	348.312658517937	234
0	2874	349.449287486578	235
0	2874	349.449287486578	235
0	2874	349.449287486578	235
0	2892	350.542266152183	236
0	2892	350.542266152183	236
0	2892	350.542266152183	236
0	2894	351.844494227169	237
0	2894	351.844494227169	237
0	2894	351.844494227169	237
0	2896	353.615640327649	238
0	2896	353.615640327649	238
0	2896	353.615640327649	238
0	2898	354.914806825423	239
0	2898	354.914806825423	239
0	2898	354.914806825423	239
0	2916	356.455701986409	240
0	2916	356.455701986409	240
0	2916	356.455701986409	240
0	2934	357.557020155329	241
0	2934	357.557020155329	241
0	2934	357.557020155329	241
0	2936	359.260450577445	242
0	2936	359.260450577445	242
0	2936	359.260450577445	242
0	2938	361.115741926327	243
0	2938	361.115741926327	243
0	2938	361.115741926327	243
0	2940	362.508434233337	244
0	2940	362.508434233337	244
0	2940	362.508434233337	244
0	2942	364.47484843441	245
0	2942	364.47484843441	245
0	2942	364.47484843441	245
0	2960	366.293121209682	246
0	2960	366.293121209682	246
0	2960	366.293121209682	246
0	2978	367.601872660068	247
0	2978	367.601872660068	247
0	2978	367.601872660068	247
0	2980	369.049550954101	248
0	2980	369.049550954101	248
0	2980	369.049550954101	248
0	2998	371.025063137838	249
0	2998	371.025063137838	249
0	2998	371.025063137838	249
0	3000	372.368130070239	250
0	3000	372.368130070239	250
0	3000	372.368130070239	250
0	3002	373.375417272642	251
0	3002	373.375417272642	251
0	3002	373.375417272642	251
0	3004	374.449204254279	252
0	3004	374.449204254279	252
0	3004	374.449204254279	252
0	3022	376.001716304652	253
0	3022	376.001716304652	253
0	3022	376.001716304652	253
0	3040	377.439695430303	254
0	3040	377.439695430303	254
0	3040	377.439695430303	254
0	3042	379.43308956743	255
0	3042	379.43308956743	255
0	3042	379.43308956743	255
0	3060	380.45829973541	256
0	3060	380.45829973541	256
0	3060	380.45829973541	256
0	3075	381.962101839099	257
0	3075	381.962101839099	257
0	3075	381.962101839099	257
0	3090	383.255614090094	258
0	3090	383.255614090094	258
0	3090	383.255614090094	258
0	3108	384.690550323192	259
0	3108	384.690550323192	259
0	3108	384.690550323192	259
0	3124	386.661985898007	260
0	3124	386.661985898007	260
0	3124	386.661985898007	260
0	3142	388.335510845611	261
0	3142	388.335510845611	261
0	3142	388.335510845611	261
0	3160	389.643476535183	262
0	3160	389.643476535183	262
0	3160	389.643476535183	262
0	3178	390.701195518802	263
0	3178	390.701195518802	263
0	3178	390.701195518802	263
0	3180	392.147168180523	264
0	3180	392.147168180523	264
0	3180	392.147168180523	264
0	3198	393.978256813567	265
0	3198	393.978256813567	265
0	3198	393.978256813567	265
0	3200	395.762339861682	266
0	3200	395.762339861682	266
0	3200	395.762339861682	266
0	3218	396.770153310933	267
0	3218	396.770153310933	267
0	3218	396.770153310933	267
0	3233	397.846971769436	268
0	3233	397.846971769436	268
0	3233	397.846971769436	268
0	3235	399.817002799912	269
0	3235	399.817002799912	269
0	3235	399.817002799912	269
0	3253	401.614240690917	270
0	3253	401.614240690917	270
0	3253	401.614240690917	270
0	3255	403.055117958309	271
0	3255	403.055117958309	271
0	3255	403.055117958309	271
0	3257	404.972657446135	272
0	3257	404.972657446135	272
0	3257	404.972657446135	272
0	3259	406.135634337869	273
0	3259	406.135634337869	273
0	3259	406.135634337869	273
0	3277	407.708267335166	274
0	3277	407.708267335166	274
0	3277	407.708267335166	274
0	3295	409.097156208792	275
0	3295	409.097156208792	275
0	3295	409.097156208792	275
0	3313	410.718583895444	276
0	3313	410.718583895444	276
0	3313	410.718583895444	276
0	3319	412.284393083156	277
0	3319	412.284393083156	277
0	3319	412.284393083156	277
0	3321	413.560058415486	278
0	3321	413.560058415486	278
0	3321	413.560058415486	278
0	3339	415.101526752431	279
0	3339	415.101526752431	279
0	3339	415.101526752431	279
0	3357	416.967332006283	280
0	3357	416.967332006283	280
0	3357	416.967332006283	280
0	3375	418.162110300818	281
0	3375	418.162110300818	281
0	3375	418.162110300818	281
0	3383	419.327218428105	282
0	3383	419.327218428105	282
0	3383	419.327218428105	282
0	3401	420.531685159858	283
0	3401	420.531685159858	283
0	3401	420.531685159858	283
0	3403	422.395742851859	284
0	3403	422.395742851859	284
0	3403	422.395742851859	284
0	3421	423.553164304784	285
0	3421	423.553164304784	285
0	3421	423.553164304784	285
0	3436	425.291045590621	286
0	3436	425.291045590621	286
0	3436	425.291045590621	286
0	3454	427.241510599936	287
0	3454	427.241510599936	287
0	3454	427.241510599936	287
0	3469	428.401863745265	288
0	3469	428.401863745265	288
0	3469	428.401863745265	288
0	3487	429.912719306387	289
0	3487	429.912719306387	289
0	3487	429.912719306387	289
0	3505	431.229054698804	290
0	3505	431.229054698804	290
0	3505	431.229054698804	290
0	3507	432.286346179051	291
0	3507	432.286346179051	291
0	3507	432.286346179051	291
0	3525	433.848748002983	292
0	3525	433.848748002983	292
0	3525	433.848748002983	292
0	3543	435.830806878944	293
0	3543	435.830806878944	293
0	3543	435.830806878944	293
0	3561	437.369558736998	294
0	3561	437.369558736998	294
0	3561	437.369558736998	294
0	3579	438.963578469203	295
0	3579	438.963578469203	295
0	3579	438.963578469203	295
0	3591	440.648516407552	296
0	3591	440.648516407552	296
0	3591	440.648516407552	296
0	3609	442.388846954879	297
0	3609	442.388846954879	297
0	3609	442.388846954879	297
0	3627	443.796076797963	298
0	3627	443.796076797963	298
0	3627	443.796076797963	298
0	3629	445.240381465842	299
0	3629	445.240381465842	299
0	3629	445.240381465842	299
0	3631	447.216116500868	300
0	3631	447.216116500868	300
0	3631	447.216116500868	300
0	3649	448.904492213706	301
0	3649	448.904492213706	301
0	3649	448.904492213706	301
0	3665	450.445958469378	302
0	3665	450.445958469378	302
0	3665	450.445958469378	302
0	3683	452.192189896096	303
0	3683	452.192189896096	303
0	3683	452.192189896096	303
0	3701	453.384636908154	304
0	3701	453.384636908154	304
0	3701	453.384636908154	304
0	3719	454.968596274116	305
0	3719	454.968596274116	305
0	3719	454.968596274116	305
0	3737	456.863944940119	306
0	3737	456.863944940119	306
0	3737	456.863944940119	306
0	3755	458.017978897401	307
0	3755	458.017978897401	307
0	3755	458.017978897401	307
0	3757	459.836036293384	308
0	3757	459.836036293384	308
0	3757	459.836036293384	308
0	3775	461.826670369914	309
0	3775	461.826670369914	309
0	3775	461.826670369914	309
0	3791	463.508724210866	310
0	3791	463.508724210866	310
0	3791	463.508724210866	310
0	3809	464.555732996518	311
0	3809	464.555732996518	311
0	3809	464.555732996518	311
0	3811	466.034754508024	312
0	3811	466.034754508024	312
0	3811	466.034754508024	312
0	3829	467.614706748946	313
0	3829	467.614706748946	313
0	3829	467.614706748946	313
0	3847	469.006696073654	314
0	3847	469.006696073654	314
0	3847	469.006696073654	314
0	3849	470.190327706131	315
0	3849	470.190327706131	315
0	3849	470.190327706131	315
0	3851	472.140520176002	316
0	3851	472.140520176002	316
0	3851	472.140520176002	316
0	3869	473.554691763678	317
0	3869	473.554691763678	317
0	3869	473.554691763678	317
0	3884	475.312438885299	318
0	3884	475.312438885299	318
0	3884	475.312438885299	318
0	3902	476.976420061513	319
0	3902	476.976420061513	319
0	3902	476.976420061513	319
0	3908	478.792765589514	320
0	3908	478.792765589514	320
0	3908	478.792765589514	320
0	3926	480.568586790086	321
0	3926	480.568586790086	321
0	3926	480.568586790086	321
0	3944	482.142260302407	322
0	3944	482.142260302407	322
0	3944	482.142260302407	322
0	3962	483.682011317312	323
0	3962	483.682011317312	323
0	3962	483.682011317312	323
0	3964	485.676386155038	324
0	3964	485.676386155038	324
0	3964	485.676386155038	324
0	3966	487.268577337581	325
0	3966	487.268577337581	325
0	3966	487.268577337581	325
0	3984	489.07440816177	326
0	3984	489.07440816177	326
0	3984	489.07440816177	326
0	4002	490.616729915458	327
0	4002	490.616729915458	327
0	4002	490.616729915458	327
0	4020	491.913582783043	328
0	4020	491.913582783043	328
0	4020	491.913582783043	328
0	4035	492.939455638956	329
0	4035	492.939455638956	329
0	4035	492.939455638956	329
0	4053	494.822058860762	330
0	4053	494.822058860762	330
0	4053	494.822058860762	330
0	4055	496.197923569558	331
0	4055	496.197923569558	331
0	4055	496.197923569558	331
0	4057	497.2616212916	332
0	4057	497.2616212916	332
0	4057	497.2616212916	332
0	4073	498.715491956416	333
0	4073	498.715491956416	333
0	4073	498.715491956416	333
0	4091	500.031482111746	334
0	4091	500.031482111746	334
0	4091	500.031482111746	334
0	4107	501.948487585727	335
0	4107	501.948487585727	335
0	4107	501.948487585727	335
0	4109	503.933642272688	336
0	4109	503.933642272688	336
0	4109	503.933642272688	336
0	4111	505.41555653288	337
0	4111	505.41555653288	337
0	4111	505.41555653288	337
0	4129	506.791518968846	338
0	4129	506.791518968846	338
0	4129	506.791518968846	338
0	4138	508.271572382738	339
0	4138	508.271572382738	339
0	4138	508.271572382738	339
0	4156	510.264950377251	340
0	4156	510.264950377251	340
0	4156	510.264950377251	340
0	4158	511.858112997924	341
0	4158	511.858112997924	341
0	4158	511.858112997924	341
0	4176	513.234454459128	342
0	4176	513.234454459128	342
0	4176	513.234454459128	342
0	4178	514.250068965684	343
0	4178	514.250068965684	343
0	4178	514.250068965684	343
0	4194	515.811881879893	344
0	4194	515.811881879893	344
0	4194	515.811881879893	344
0	4212	517.268690447406	345
0	4212	517.268690447406	345
0	4212	517.268690447406	345
0	4226	519.007186376806	346
0	4226	519.007186376806	346
0	4226	519.007186376806	346
0	4228	520.166620003609	347
0	4228	520.166620003609	347
0	4228	520.166620003609	347
0	4246	522.057225182038	348
0	4246	522.057225182038	348
0	4246	522.057225182038	348
0	4262	523.892645682525	349
0	4262	523.892645682525	349
0	4262	523.892645682525	349
0	4280	525.5430374307	350
0	4280	525.5430374307	350
0	4280	525.5430374307	350
0	4298	526.909129636446	351
0	4298	526.909129636446	351
0	4298	526.909129636446	351
0	4316	528.04472652249	352
0	4316	528.04472652249	352
0	4316	528.04472652249	352
0	4334	529.129435304403	353
0	4334	529.129435304403	353
0	4334	529.129435304403	353
0	4352	530.42538836793	354