version 3
run General-0-20231011-16:24:11-11135
attr configname General
attr datetime 20231011-16:24:11
attr datetimef 20231011-162411
attr experiment General
attr inifile omnetpp.ini
attr iterationvars ""
attr iterationvarsd ""
attr iterationvarsf ""
attr measurement ""
attr network Reliability
attr processid 11135
attr repetition 0
attr replication #0
attr resultdir results
attr runnumber 0
attr seedset 0
config network Reliability
config Reliability.node[*].transmissionTime "uniform(1s, 2s)"
config Reliability.node[*].delayTime "uniform(0.01s, 0.2s)"
config Reliability.node[*].lossProbability 0.2
config record-eventlog true
config sim-time-limit 240s
config repeat 5

vector 0 Reliability.node[0] txVector ETV
vector 1 Reliability.node[0] rxVector ETV
vector 2 Reliability.node[1] rxVector ETV
vector 3 Reliability.node[1] txVector ETV
vector 4 Reliability.node[4] rxVector ETV
vector 5 Reliability.node[4] txVector ETV
vector 6 Reliability.node[2] rxVector ETV
vector 7 Reliability.node[2] txVector ETV
vector 8 Reliability.node[3] rxVector ETV
vector 9 Reliability.node[3] txVector ETV
vector 10 Reliability.node[5] rxVector ETV
0	0	0	1
0	1	0.114274565438	2
0	1	0.114274565438	3
0	6	0.951879888213	3
0	6	0.951879888213	4
0	12	1.958540309528	5
0	12	1.958540309528	6
0	17	2.480774809745	7
0	17	2.480774809745	8
0	18	3.295936471159	9
0	18	3.295936471159	10
0	20	4.437929964064	11
0	20	4.437929964064	12
0	22	5.165948616416	13
0	23	6.218459139716	14
0	23	6.218459139716	15
0	25	6.703321844647	16
0	25	6.703321844647	17
0	26	7.740307467895	18
0	27	7.967877456062	19
0	27	7.967877456062	20
0	31	8.107092425572	20
0	31	8.107092425572	21
0	33	9.18442781277	22
0	34	9.5145411544	23
0	34	9.5145411544	24
0	35	9.557042415133	25
0	35	9.557042415133	26
0	36	10.244653279269	27
0	36	10.244653279269	28
0	37	10.321966919774	28
0	37	10.321966919774	29
0	41	10.767424976798	30
0	42	11.167681186598	31
0	42	11.167681186598	32
0	43	11.929797586478	33
0	43	11.929797586478	34
0	44	11.995339418137	35
0	44	11.995339418137	36
0	45	12.420972787913	37
0	45	12.420972787913	38
0	47	12.762724542404	39
0	47	12.762724542404	40
0	48	13.154309004619	41
0	48	13.154309004619	42
0	49	13.404495091602	43
0	49	13.404495091602	44
0	51	14.095725110171	45
0	51	14.095725110171	46
0	52	14.251410275771	47
0	52	14.251410275771	48
0	53	14.425251410455	49
0	54	15.078154722653	50
0	54	15.078154722653	51
0	55	15.973918578725	52
0	56	16.030096928468	53
0	56	16.030096928468	54
0	60	16.098142394988	55
0	60	16.098142394988	56
0	62	16.228171366573	57
0	62	16.228171366573	58
0	69	17.150293493057	59
0	69	17.150293493057	60
0	70	17.162289896008	61
0	70	17.162289896008	62
0	71	17.415629500195	63
0	71	17.415629500195	64
0	72	17.794772815033	65
0	72	17.794772815033	66
0	74	18.125983356593	66
0	74	18.125983356593	67
0	77	18.424986201942	68
0	78	18.926570677039	69
0	78	18.926570677039	70
0	79	19.071451105057	71
0	79	19.071451105057	72
0	80	19.091586093843	73
0	80	19.091586093843	74
0	83	19.390713520909	75
0	83	19.390713520909	76
0	84	20.073012440306	77
0	84	20.073012440306	78
0	85	20.253926230267	79
0	85	20.253926230267	80
0	86	20.341459073704	81
0	87	20.380062526284	82
0	87	20.380062526284	83
0	98	21.343462530153	84
0	98	21.343462530153	85
0	99	21.522210172218	86
0	99	21.522210172218	87
0	100	21.638896025364	88
0	100	21.638896025364	89
0	101	21.791882668115	90
0	101	21.791882668115	91
0	102	21.953405507746	92
0	102	21.953405507746	93
0	104	22.917079464373	94
0	104	22.917079464373	95
0	105	23.24528924224	96
0	106	23.262014856521	97
0	107	23.299546169911	98
0	107	23.299546169911	99
0	108	23.61357904612	100
0	108	23.61357904612	101
0	110	24.052553532951	102
0	110	24.052553532951	103
0	112	24.543571570069	104
0	112	24.543571570069	105
0	113	24.831979768077	106
0	113	24.831979768077	107
0	114	24.851362424998	108
0	114	24.851362424998	109
0	118	25.266779861552	110
0	118	25.266779861552	111
0	119	25.282378826135	111
0	119	25.282378826135	112
0	121	25.420115404603	113
0	123	25.951589311568	114
0	125	26.369002285373	115
0	126	26.429272792907	116
0	126	26.429272792907	117
0	127	26.435494928267	118
0	127	26.435494928267	119
0	128	26.8979383936	120
0	128	26.8979383936	121
0	130	27.199166422783	122
0	130	27.199166422783	123
0	131	27.358772609245	124
0	131	27.358772609245	125
0	132	27.486083041057	126
0	132	27.486083041057	127
0	133	27.882815473154	128
0	133	27.882815473154	129
0	134	28.210880504296	130
0	135	28.351577242097	131
0	138	28.657712718584	132
0	138	28.657712718584	133
0	139	28.873459905697	134
0	139	28.873459905697	135
0	140	29.302896129994	136
0	140	29.302896129994	137
0	141	29.372364415228	138
0	141	29.372364415228	139
0	142	29.531067510095	140
0	143	29.54986562075	141
0	143	29.54986562075	142
0	144	29.881637401292	143
0	144	29.881637401292	144
0	146	30.817579656685	145
0	146	30.817579656685	146
0	147	31.007310529335	147
0	147	31.007310529335	148
0	148	31.031093803892	149
0	148	31.031093803892	150
0	149	31.127094206008	151
0	149	31.127094206008	152
0	150	31.156008663261	153
0	150	31.156008663261	154
0	151	31.874033796945	155
0	151	31.874033796945	156
0	153	32.161113589778	157
0	156	32.243484305875	158
0	156	32.243484305875	159
0	158	32.313287211423	160
0	158	32.313287211423	161
0	159	32.319255524876	162
0	161	32.568423903626	163
0	161	32.568423903626	164
0	163	32.72558219512	165
0	163	32.72558219512	166
0	164	33.219142752243	167
0	165	33.364492598799	168
0	165	33.364492598799	169
0	166	33.861142225057	170
0	166	33.861142225057	171
0	167	33.862802615995	172
0	167	33.862802615995	173
0	168	34.063090067219	174
0	168	34.063090067219	175
0	169	34.167900794492	176
0	169	34.167900794492	177
0	170	34.283120836443	178
0	170	34.283120836443	179
0	173	34.448362075267	180
0	173	34.448362075267	181
0	174	34.684509743581	182
0	174	34.684509743581	183
0	176	35.063145417582	184
0	176	35.063145417582	185
0	177	35.441442827768	186
0	177	35.441442827768	187
0	178	35.506926824764	188
0	178	35.506926824764	189
0	179	35.693851073645	190
0	179	35.693851073645	191
0	181	36.168458500723	192
0	181	36.168458500723	193
0	185	36.395732669867	194
0	185	36.395732669867	195
0	188	36.564807348064	196
0	188	36.564807348064	197
0	189	36.774729239151	198
0	189	36.774729239151	199
0	190	36.86612829294	200
0	191	36.971479782043	201
0	192	37.153191259789	202
0	192	37.153191259789	203
0	193	37.672626422028	204
0	193	37.672626422028	205
0	195	37.960867051844	206
0	195	37.960867051844	207
0	196	38.032314102011	208
0	196	38.032314102011	209
0	197	38.070994054507	210
0	198	38.136438653478	211
0	198	38.136438653478	212
0	202	38.435440035394	212
0	202	38.435440035394	213
0	205	38.484023933913	213
0	205	38.484023933913	214
0	208	38.50880399482	215
0	208	38.50880399482	216
0	210	38.615157774512	217
0	210	38.615157774512	218
0	211	38.703079387787	219
0	211	38.703079387787	220
0	213	39.423353698942	221
0	213	39.423353698942	222
0	214	39.616790174352	223
0	214	39.616790174352	224
0	215	39.710121468518	225
0	215	39.710121468518	226
0	216	39.969651527386	227
0	216	39.969651527386	228
0	217	40.021850205349	229
0	218	40.032930438015	230
0	218	40.032930438015	231
0	219	40.201219616234	232
0	220	40.245605710058	233
0	220	40.245605710058	234
0	222	40.458122816595	235
0	224	40.764931034375	236
0	224	40.764931034375	237
0	228	41.215938535115	237
0	228	41.215938535115	238
0	230	41.397612366964	239
0	230	41.397612366964	240
0	231	41.435453623862	241
0	232	41.443422579513	242
0	233	41.46704289495	243
0	234	41.629443443156	244
0	234	41.629443443156	245
0	235	41.661322721835	246
0	235	41.661322721835	247
0	236	41.695153748959	248
0	236	41.695153748959	249
0	237	41.864243304084	250
0	237	41.864243304084	251
0	238	42.176303449631	252
0	238	42.176303449631	253
0	239	42.229886933292	254
0	239	42.229886933292	255
0	240	42.694045299272	256
0	240	42.694045299272	257
0	241	42.702194397244	258
0	241	42.702194397244	259
0	243	42.874810655843	260
0	243	42.874810655843	261
0	244	42.960792918417	262
0	245	43.144454719415	263
0	245	43.144454719415	264
0	247	43.307786245443	265
0	247	43.307786245443	266
0	248	43.318313622245	267
0	249	43.413457239834	268
0	251	43.555704920429	269
0	251	43.555704920429	270
0	253	43.706364137183	271
0	254	43.956163447191	272
0	254	43.956163447191	273
0	256	44.201302792328	274
0	256	44.201302792328	275
0	257	44.226787013141	276
0	257	44.226787013141	277
0	258	44.470134984196	278
0	258	44.470134984196	279
0	259	44.567208811021	280
0	259	44.567208811021	281
0	260	44.692126761753	282
0	260	44.692126761753	283
0	261	44.701681023472	284
0	262	44.926557720515	285
0	263	45.000775744514	286
0	263	45.000775744514	287
0	264	45.001056876588	288
0	265	45.006942618521	288
0	265	45.006942618521	289
0	269	45.485556108008	290
0	269	45.485556108008	291
0	270	45.508112892658	292
0	270	45.508112892658	293
0	271	45.641354491142	294
0	271	45.641354491142	295
0	273	46.115705225344	296
0	273	46.115705225344	297
0	274	46.153956509776	298
0	274	46.153956509776	299
0	275	46.202143614976	300
0	275	46.202143614976	301
0	276	46.237858522925	302
0	277	46.326741643106	303
0	277	46.326741643106	304
1	1	0.114274565438	1
1	6	0.951879888213	1
1	12	1.958540309528	2
1	17	2.480774809745	3
1	18	3.295936471159	4
1	20	4.437929964064	5
1	23	6.218459139716	6
1	25	6.703321844647	7
1	27	7.967877456062	8
1	31	8.107092425572	8
1	34	9.5145411544	9
1	35	9.557042415133	10
1	36	10.244653279269	11
1	37	10.321966919774	11
1	42	11.167681186598	12
1	43	11.929797586478	13
1	44	11.995339418137	14
1	45	12.420972787913	15
1	47	12.762724542404	16
1	48	13.154309004619	17
1	49	13.404495091602	18
1	51	14.095725110171	19
1	52	14.251410275771	20
1	54	15.078154722653	21
1	56	16.030096928468	22
1	60	16.098142394988	23
1	62	16.228171366573	24
1	69	17.150293493057	25
1	70	17.162289896008	26
1	71	17.415629500195	27
1	72	17.794772815033	28
1	74	18.125983356593	28
1	78	18.926570677039	29
1	79	19.071451105057	30
1	80	19.091586093843	31
1	83	19.390713520909	32
1	84	20.073012440306	33
1	85	20.253926230267	34
1	87	20.380062526284	35
1	98	21.343462530153	36
1	99	21.522210172218	37
1	100	21.638896025364	38
1	101	21.791882668115	39
1	102	21.953405507746	40
1	104	22.917079464373	41
1	107	23.299546169911	42
1	108	23.61357904612	43
1	110	24.052553532951	44
1	112	24.543571570069	45
1	113	24.831979768077	46
1	114	24.851362424998	47
1	118	25.266779861552	48
1	119	25.282378826135	48
1	126	26.429272792907	49
1	127	26.435494928267	50
1	128	26.8979383936	51
1	130	27.199166422783	52
1	131	27.358772609245	53
1	132	27.486083041057	54
1	133	27.882815473154	55
1	138	28.657712718584	56
1	139	28.873459905697	57
1	140	29.302896129994	58
1	141	29.372364415228	59
1	143	29.54986562075	60
1	144	29.881637401292	61
1	146	30.817579656685	62
1	147	31.007310529335	63
1	148	31.031093803892	64
1	149	31.127094206008	65
1	150	31.156008663261	66
1	151	31.874033796945	67
1	156	32.243484305875	68
1	158	32.313287211423	69
1	161	32.568423903626	70
1	163	32.72558219512	71
1	165	33.364492598799	72
1	166	33.861142225057	73
1	167	33.862802615995	74
1	168	34.063090067219	75
1	169	34.167900794492	76
1	170	34.283120836443	77
1	173	34.448362075267	78
1	174	34.684509743581	79
1	176	35.063145417582	80
1	177	35.441442827768	81
1	178	35.506926824764	82
1	179	35.693851073645	83
1	181	36.168458500723	84
1	185	36.395732669867	85
1	188	36.564807348064	86
1	189	36.774729239151	87
1	192	37.153191259789	88
1	193	37.672626422028	89
1	195	37.960867051844	90
1	196	38.032314102011	91
1	198	38.136438653478	92
1	202	38.435440035394	92
1	205	38.484023933913	92
1	208	38.50880399482	93
1	210	38.615157774512	94
1	211	38.703079387787	95
1	213	39.423353698942	96
1	214	39.616790174352	97
1	215	39.710121468518	98
1	216	39.969651527386	99
1	218	40.032930438015	100
1	220	40.245605710058	101
1	224	40.764931034375	102
1	228	41.215938535115	102
1	230	41.397612366964	103
1	234	41.629443443156	104
1	235	41.661322721835	105
1	236	41.695153748959	106
1	237	41.864243304084	107
1	238	42.176303449631	108
1	239	42.229886933292	109
1	240	42.694045299272	110
1	241	42.702194397244	111
1	243	42.874810655843	112
1	245	43.144454719415	113
1	247	43.307786245443	114
1	251	43.555704920429	115
1	254	43.956163447191	116
1	256	44.201302792328	117
1	257	44.226787013141	118
1	258	44.470134984196	119
1	259	44.567208811021	120
1	260	44.692126761753	121
1	263	45.000775744514	122
1	265	45.006942618521	122
1	269	45.485556108008	123
1	270	45.508112892658	124
1	271	45.641354491142	125
1	273	46.115705225344	126
1	274	46.153956509776	127
1	275	46.202143614976	128
1	277	46.326741643106	129
2	2	0.384435110221	1
2	8	1.815571513678	1
2	11	1.881449145532	1
2	14	1.992549990093	1
2	19	3.950577470211	2
2	21	5.13974738963	3
2	32	8.994750649421	4
2	46	12.601055247315	5
2	57	16.042423475956	6
2	59	16.06797238897	6
2	65	16.283340880264	6
2	66	16.283873426538	6
2	81	19.166557651631	7
2	82	19.175767983943	8
2	88	20.533802555224	9
2	91	20.901916052427	9
2	93	20.932516550254	9
2	97	21.049950573027	9
2	103	22.465913936316	10
2	109	23.96819421979	11
2	122	25.615506866296	12
2	145	30.316769525762	13
2	160	32.390749529821	14
2	162	32.583728617618	15
2	172	34.360371164477	16
2	175	34.911787101829	17
2	182	36.341176907287	17
2	194	37.874033495674	18
2	199	38.271129706946	19
2	200	38.342859051569	20
2	212	38.970822383675	21
2	221	40.250978702533	22
2	223	40.713780936076	23
2	225	40.934746638304	24
2	242	42.808234248126	25
2	246	43.186778481775	26
2	255	44.062865176862	27
2	272	46.021064845061	28
3	2	0.384435110221	4
3	8	1.815571513678	4
3	11	1.881449145532	4
3	14	1.992549990093	4
3	19	3.950577470211	8
3	21	5.13974738963	12
3	32	8.994750649421	16
3	46	12.601055247315	20
3	57	16.042423475956	24
3	59	16.06797238897	24
3	65	16.283340880264	24
3	66	16.283873426538	24
3	81	19.166557651631	28
3	82	19.175767983943	32
3	88	20.533802555224	36
3	91	20.901916052427	36
3	93	20.932516550254	36
3	97	21.049950573027	36
3	103	22.465913936316	40
3	109	23.96819421979	44
3	122	25.615506866296	48
3	145	30.316769525762	52
3	160	32.390749529821	56
3	162	32.583728617618	60
3	172	34.360371164477	64
3	175	34.911787101829	68
3	182	36.341176907287	68
3	194	37.874033495674	72
3	199	38.271129706946	76
3	200	38.342859051569	80
3	212	38.970822383675	84
3	221	40.250978702533	88
3	223	40.713780936076	92
3	225	40.934746638304	96
3	242	42.808234248126	100
3	246	43.186778481775	104
3	255	44.062865176862	108
3	272	46.021064845061	112
4	3	0.869364631832	1
4	30	8.073327983397	2
4	38	10.410078539596	3
4	58	16.045850997674	3
4	61	16.194428359222	3
4	95	21.013491152765	3
4	96	21.044359906136	3
4	117	25.259461142403	4
4	155	32.235692577301	5
4	206	38.492930973116	6
4	227	41.198046956867	7
4	268	45.094170141482	8
5	3	0.869364631832	4
5	30	8.073327983397	8
5	38	10.410078539596	12
5	58	16.045850997674	12
5	61	16.194428359222	12
5	95	21.013491152765	12
5	96	21.044359906136	12
5	117	25.259461142403	16
5	155	32.235692577301	20
5	206	38.492930973116	24
5	227	41.198046956867	28
5	268	45.094170141482	32
6	4	0.892398024145	1
6	9	1.831761788226	1
6	28	8.011140468025	2
6	40	10.436414983062	3
6	63	16.240088872624	3
6	73	18.092537369848	4
6	94	20.948494466623	4
6	116	25.248365255036	5
6	201	38.400378399814	6
6	209	38.541783261853	7
6	266	45.024685695575	8
7	4	0.892398024145	2
7	9	1.831761788226	2
7	28	8.011140468025	4
7	40	10.436414983062	6
7	63	16.240088872624	6
7	73	18.092537369848	8
7	94	20.948494466623	8
7	116	25.248365255036	10
7	201	38.400378399814	12
7	209	38.541783261853	14
7	266	45.024685695575	16
8	5	0.949848050521	1
8	10	1.84187083356	1
8	29	8.072995067551	2
8	39	10.421079772488	3
8	68	16.345968101098	3
8	76	18.180947528702	4
8	89	20.847457910043	4
8	152	32.127405217627	5
8	207	38.496775574635	6
8	226	41.135066402707	7
9	5	0.949848050521	3
9	10	1.84187083356	3
9	29	8.072995067551	6
9	39	10.421079772488	9
9	68	16.345968101098	9
9	76	18.180947528702	12
9	89	20.847457910043	12
9	152	32.127405217627	15
9	207	38.496775574635	18
9	226	41.135066402707	21
10	7	1.815260838663	1
10	16	2.070123857393	2
10	64	16.28228832237	3
10	67	16.338149676356	4
10	90	20.881548058271	5
10	92	20.923491366737	6
10	184	36.385715492008	7

