file 405302 1697739102                                          
version 3
run General-3-20231019-20:11:42-68151
attr configname General
attr datetime 20231019-20:11:42
attr datetimef 20231019-201142
attr experiment General
attr inifile omnetpp.ini
attr iterationvars ""
attr iterationvarsd ""
attr iterationvarsf ""
attr measurement ""
attr network Reliability
attr processid 68151
attr repetition 3
attr replication #3
attr resultdir results
attr runnumber 3
attr seedset 3
config network Reliability
config Reliability.node[*].transmissionTime "uniform(1s, 2s)"
config Reliability.node[*].delayTime "uniform(0.01s, 0.2s)"
config Reliability.node[*].lossProbability 0.3
config record-eventlog true
config sim-time-limit 1000s
config repeat 5

vector 0 Reliability.node[0] txVector ETV
vector 1 Reliability.node[1] txVector ETV
vector 2 Reliability.node[1] rxVector ETV
vector 3 Reliability.node[2] txVector ETV
vector 4 Reliability.node[2] rxVector ETV
vector 5 Reliability.node[4] txVector ETV
vector 6 Reliability.node[4] rxVector ETV
vector 7 Reliability.node[0] rxVector ETV
vector 8 Reliability.node[5] txVector ETV
vector 9 Reliability.node[5] rxVector ETV
vector 10 Reliability.node[6] rxVector ETV
vector 11 Reliability.node[6] e2eVector ETV
vector 12 Reliability.node[3] txVector ETV
vector 13 Reliability.node[3] rxVector ETV
0	1273 54645 1 8165 0.114651601831 999.744753872811 1989 1 663 660348 292093932
1	55918 51509 2 8158 0.148089329092 996.854181746988 1836 1 1836 1686366 2064674106
2	107427 37046 2 8158 0.148089329092 996.854181746988 1332 1 1332 887778 788642790
3	144473 22434 3 8143 0.191141759152 995.647847738535 816 1 816 333336 181445896
4	166907 17225 3 8151 0.191141759152 995.759141689652 627 1 627 196878 82360630
5	184132 48409 13 8145 1.939214306271 995.670198058599 1728 1 1728 1493856 1721420064
6	232541 32575 13 8156 1.939214306271 995.898674135517 1176 1 1176 692076 542818276
7	265116 8554 15 8159 2.004594688385 996.925683294023 314 1 314 49455 10369065
8	273670 32742 20 8148 2.132741582296 995.721752636681 1182 1 1182 699153 551165615
9	306412 16798 20 8148 2.132741582296 995.721752636681 612 1 612 187578 76594350
10	323210 7851 22 8155 2.210950101437 995.8560198166 278 1 278 38781 7200339
11	331061 11023 22 8155 2.210950101437 995.8560198166 278 1.2766982575999 2.641355451831 546.66869249506 1100.7156516626
12	342084 36774 23 8142 2.257768252513 995.646419133847 1278 1 1278 817281 696595839
13	378858 26443 23 8154 2.257768252513 995.811714538838 927 1 927 430128 265962480

