version 3
run General-4-20231019-19:13:55-57309
attr configname General
attr datetime 20231019-19:13:55
attr datetimef 20231019-191355
attr experiment General
attr inifile omnetpp.ini
attr iterationvars ""
attr iterationvarsd ""
attr iterationvarsf ""
attr measurement ""
attr network Reliability
attr processid 57309
attr repetition 4
attr replication #4
attr resultdir results
attr runnumber 4
attr seedset 4
config network Reliability
config Reliability.node[*].transmissionTime "uniform(1s, 2s)"
config Reliability.node[*].delayTime "uniform(0.01s, 0.2s)"
config Reliability.node[0].lossProbability 0.3
config Reliability.node[1].lossProbability 0.3
config Reliability.node[2].lossProbability 0.3
config Reliability.node[3].lossProbability 0.3/2
config Reliability.node[4].lossProbability 0.3/2
config Reliability.node[5].lossProbability 0.3*2
config Reliability.node[6].lossProbability 0.3*2
config Reliability.node[7].lossProbability 0.3*3
config record-eventlog true
config sim-time-limit 240s
config repeat 5

vector 0 Reliability.node[0] txVector ETV
vector 1 Reliability.node[2] txVector ETV
vector 2 Reliability.node[2] rxVector ETV
vector 3 Reliability.node[1] txVector ETV
vector 4 Reliability.node[1] rxVector ETV
vector 5 Reliability.node[4] txVector ETV
vector 6 Reliability.node[4] rxVector ETV
vector 7 Reliability.node[0] rxVector ETV
vector 8 Reliability.node[3] txVector ETV
vector 9 Reliability.node[3] rxVector ETV
vector 10 Reliability.node[6] txVector ETV
vector 11 Reliability.node[6] rxVector ETV
vector 12 Reliability.node[5] txVector ETV
vector 13 Reliability.node[5] rxVector ETV
vector 14 Reliability.node[7] rxVector ETV
vector 15 Reliability.node[7] e2eVector ETV
0	1	0.193735669288	1
0	1	0.193735669288	2
0	1	0.193735669288	2
0	1	0.193735669288	2
0	18	1.366430994277	3
0	18	1.366430994277	4
0	18	1.366430994277	4
0	18	1.366430994277	4
0	37	2.410591047877	5
0	37	2.410591047877	6
0	37	2.410591047877	6
0	37	2.410591047877	6
0	51	3.591311642123	7
0	51	3.591311642123	8
0	51	3.591311642123	8
0	51	3.591311642123	8
0	65	5.486812803816	9
0	65	5.486812803816	10
0	65	5.486812803816	10
0	65	5.486812803816	10
0	84	7.333535075575	11
0	84	7.333535075575	12
0	84	7.333535075575	12
0	84	7.333535075575	12
0	100	9.017558290778	13
0	100	9.017558290778	14
0	100	9.017558290778	14
0	100	9.017558290778	14
0	109	10.903355383702	15
0	109	10.903355383702	16
0	109	10.903355383702	16
0	109	10.903355383702	16
0	126	11.98653950092	17
0	126	11.98653950092	18
0	126	11.98653950092	18
0	126	11.98653950092	18
0	140	13.216436400931	19
0	140	13.216436400931	20
0	140	13.216436400931	20
0	140	13.216436400931	20
0	159	14.222760341052	21
0	159	14.222760341052	22
0	159	14.222760341052	22
0	159	14.222760341052	22
0	178	15.44974136042	23
0	178	15.44974136042	24
0	178	15.44974136042	24
0	178	15.44974136042	24
0	189	17.086590028522	25
0	189	17.086590028522	26
0	189	17.086590028522	26
0	189	17.086590028522	26
0	206	18.480726361662	27
0	206	18.480726361662	28
0	206	18.480726361662	28
0	206	18.480726361662	28
0	209	19.711472304692	29
0	209	19.711472304692	30
0	209	19.711472304692	30
0	209	19.711472304692	30
0	226	20.981936378791	31
0	226	20.981936378791	32
0	226	20.981936378791	32
0	226	20.981936378791	32
0	243	22.90712150807	33
0	243	22.90712150807	34
0	243	22.90712150807	34
0	243	22.90712150807	34
0	246	23.969688413818	35
0	246	23.969688413818	36
0	246	23.969688413818	36
0	246	23.969688413818	36
0	262	25.012586942794	37
0	262	25.012586942794	38
0	262	25.012586942794	38
0	262	25.012586942794	38
0	276	26.585870546907	39
0	276	26.585870546907	40
0	276	26.585870546907	40
0	276	26.585870546907	40
0	292	27.784926198343	41
0	292	27.784926198343	42
0	292	27.784926198343	42
0	292	27.784926198343	42
0	309	28.991889222445	43
0	309	28.991889222445	44
0	309	28.991889222445	44
0	309	28.991889222445	44
0	323	30.04961432299	45
0	323	30.04961432299	46
0	323	30.04961432299	46
0	323	30.04961432299	46
0	336	31.958436808469	47
0	336	31.958436808469	48
0	336	31.958436808469	48
0	336	31.958436808469	48
0	353	33.021974182608	49
0	353	33.021974182608	50
0	353	33.021974182608	50
0	353	33.021974182608	50
0	356	34.099845386496	51
0	356	34.099845386496	52
0	356	34.099845386496	52
0	356	34.099845386496	52
0	367	36.054911323976	53
0	367	36.054911323976	54
0	367	36.054911323976	54
0	367	36.054911323976	54
0	383	37.346455079656	55
0	383	37.346455079656	56
0	383	37.346455079656	56
0	383	37.346455079656	56
0	402	38.719742907829	57
0	402	38.719742907829	58
0	402	38.719742907829	58
0	402	38.719742907829	58
0	419	40.216800698464	59
0	419	40.216800698464	60
0	419	40.216800698464	60
0	419	40.216800698464	60
0	422	41.338438339218	61
0	422	41.338438339218	62
0	422	41.338438339218	62
0	422	41.338438339218	62
0	441	42.912220213016	63
0	441	42.912220213016	64
0	441	42.912220213016	64
0	441	42.912220213016	64
0	444	44.081493777142	65
0	444	44.081493777142	66
0	444	44.081493777142	66
0	444	44.081493777142	66
0	447	45.299446964556	67
0	447	45.299446964556	68
0	447	45.299446964556	68
0	447	45.299446964556	68
0	456	46.382270492766	69
0	456	46.382270492766	70
0	456	46.382270492766	70
0	456	46.382270492766	70
0	461	48.050004801633	71
0	461	48.050004801633	72
0	461	48.050004801633	72
0	461	48.050004801633	72
0	478	49.8139968502	73
0	478	49.8139968502	74
0	478	49.8139968502	74
0	478	49.8139968502	74
0	495	51.588054028725	75
0	495	51.588054028725	76
0	495	51.588054028725	76
0	495	51.588054028725	76
0	514	53.301471459366	77
0	514	53.301471459366	78
0	514	53.301471459366	78
0	514	53.301471459366	78
0	525	54.625232775382	79
0	525	54.625232775382	80
0	525	54.625232775382	80
0	525	54.625232775382	80
0	542	56.534011036775	81
0	542	56.534011036775	82
0	542	56.534011036775	82
0	542	56.534011036775	82
0	545	58.109155179619	83
0	545	58.109155179619	84
0	545	58.109155179619	84
0	545	58.109155179619	84
0	548	59.360091374175	85
0	548	59.360091374175	86
0	548	59.360091374175	86
0	548	59.360091374175	86
0	564	60.808771499585	87
0	564	60.808771499585	88
0	564	60.808771499585	88
0	564	60.808771499585	88
0	578	62.808135533858	89
0	578	62.808135533858	90
0	578	62.808135533858	90
0	578	62.808135533858	90
0	595	64.170684727527	91
0	595	64.170684727527	92
0	595	64.170684727527	92
0	595	64.170684727527	92
0	609	65.282763540664	93
0	609	65.282763540664	94
0	609	65.282763540664	94
0	609	65.282763540664	94
0	628	67.013617568103	95
0	628	67.013617568103	96
0	628	67.013617568103	96
0	628	67.013617568103	96
0	644	68.758925341455	97
0	644	68.758925341455	98
0	644	68.758925341455	98
0	644	68.758925341455	98
0	652	69.816118061229	99
0	652	69.816118061229	100
0	652	69.816118061229	100
0	652	69.816118061229	100
0	666	71.120384306101	101
0	666	71.120384306101	102
0	666	71.120384306101	102
0	666	71.120384306101	102
0	669	72.73423864405	103
0	669	72.73423864405	104
0	669	72.73423864405	104
0	669	72.73423864405	104
0	672	74.406091118151	105
0	672	74.406091118151	106
0	672	74.406091118151	106
0	672	74.406091118151	106
0	681	75.86428873652	107
0	681	75.86428873652	108
0	681	75.86428873652	108
0	681	75.86428873652	108
0	689	77.367457555294	109
0	689	77.367457555294	110
0	689	77.367457555294	110
0	689	77.367457555294	110
0	706	78.913646344015	111
0	706	78.913646344015	112
0	706	78.913646344015	112
0	706	78.913646344015	112
0	723	80.505720736146	113
0	723	80.505720736146	114
0	723	80.505720736146	114
0	723	80.505720736146	114
0	728	82.282589466929	115
0	728	82.282589466929	116
0	728	82.282589466929	116
0	728	82.282589466929	116
0	747	83.325794964017	117
0	747	83.325794964017	118
0	747	83.325794964017	118
0	747	83.325794964017	118
0	764	84.417027411203	119
0	764	84.417027411203	120
0	764	84.417027411203	120
0	764	84.417027411203	120
0	783	86.081297470641	121
0	783	86.081297470641	122
0	783	86.081297470641	122
0	783	86.081297470641	122
0	791	87.92724179771	123
0	791	87.92724179771	124
0	791	87.92724179771	124
0	791	87.92724179771	124
0	808	89.756824213464	125
0	808	89.756824213464	126
0	808	89.756824213464	126
0	808	89.756824213464	126
0	816	91.435728513321	127
0	816	91.435728513321	128
0	816	91.435728513321	128
0	816	91.435728513321	128
0	833	92.747537448688	129
0	833	92.747537448688	130
0	833	92.747537448688	130
0	833	92.747537448688	130
0	850	94.23146839455	131
0	850	94.23146839455	132
0	850	94.23146839455	132
0	850	94.23146839455	132
0	867	95.588456979638	133
0	867	95.588456979638	134
0	867	95.588456979638	134
0	867	95.588456979638	134
0	886	96.896134621615	135
0	886	96.896134621615	136
0	886	96.896134621615	136
0	886	96.896134621615	136
0	903	98.664143881679	137
0	903	98.664143881679	138
0	903	98.664143881679	138
0	903	98.664143881679	138
0	920	99.757987244439	139
0	920	99.757987244439	140
0	920	99.757987244439	140
0	920	99.757987244439	140
0	935	100.778961156181	141
0	935	100.778961156181	142
0	935	100.778961156181	142
0	935	100.778961156181	142
0	954	102.260996346514	143
0	954	102.260996346514	144
0	954	102.260996346514	144
0	954	102.260996346514	144
0	971	103.727829379182	145
0	971	103.727829379182	146
0	971	103.727829379182	146
0	971	103.727829379182	146
0	990	104.801174709726	147
0	990	104.801174709726	148
0	990	104.801174709726	148
0	990	104.801174709726	148
0	1009	106.055807169447	149
0	1009	106.055807169447	150
0	1009	106.055807169447	150
0	1009	106.055807169447	150
0	1012	107.196882130266	151
0	1012	107.196882130266	152
0	1012	107.196882130266	152
0	1012	107.196882130266	152
0	1020	108.256742666163	153
0	1020	108.256742666163	154
0	1020	108.256742666163	154
0	1020	108.256742666163	154
0	1037	109.839118089913	155
0	1037	109.839118089913	156
0	1037	109.839118089913	156
0	1037	109.839118089913	156
0	1054	111.258449838417	157
0	1054	111.258449838417	158
0	1054	111.258449838417	158
0	1054	111.258449838417	158
0	1071	112.41860743022	159
0	1071	112.41860743022	160
0	1071	112.41860743022	160
0	1071	112.41860743022	160
0	1088	114.180055180485	161
0	1088	114.180055180485	162
0	1088	114.180055180485	162
0	1088	114.180055180485	162
0	1105	115.601777464072	163
0	1105	115.601777464072	164
0	1105	115.601777464072	164
0	1105	115.601777464072	164
0	1111	116.86127067652	165
0	1111	116.86127067652	166
0	1111	116.86127067652	166
0	1111	116.86127067652	166
0	1130	118.686692965836	167
0	1130	118.686692965836	168
0	1130	118.686692965836	168
0	1130	118.686692965836	168
0	1147	120.656067200158	169
0	1147	120.656067200158	170
0	1147	120.656067200158	170
0	1147	120.656067200158	170
0	1166	122.07026103387	171
0	1166	122.07026103387	172
0	1166	122.07026103387	172
0	1166	122.07026103387	172
0	1183	123.764145031724	173
0	1183	123.764145031724	174
0	1183	123.764145031724	174
0	1183	123.764145031724	174
0	1186	125.312792035904	175
0	1186	125.312792035904	176
0	1186	125.312792035904	176
0	1186	125.312792035904	176
0	1205	126.444534602495	177
0	1205	126.444534602495	178
0	1205	126.444534602495	178
0	1205	126.444534602495	178
0	1216	128.134974741995	179
0	1216	128.134974741995	180
0	1216	128.134974741995	180
0	1216	128.134974741995	180
0	1232	129.896075772041	181
0	1232	129.896075772041	182
0	1232	129.896075772041	182
0	1232	129.896075772041	182
0	1248	131.888284319	183
0	1248	131.888284319	184
0	1248	131.888284319	184
0	1248	131.888284319	184
0	1263	133.678252824502	185
0	1263	133.678252824502	186
0	1263	133.678252824502	186
0	1263	133.678252824502	186
0	1277	135.36062446019	187
0	1277	135.36062446019	188
0	1277	135.36062446019	188
0	1277	135.36062446019	188
0	1293	136.422890729889	189
0	1293	136.422890729889	190
0	1293	136.422890729889	190
0	1293	136.422890729889	190
0	1307	138.075272522088	191
0	1307	138.075272522088	192
0	1307	138.075272522088	192
0	1307	138.075272522088	192
0	1323	139.483404532693	193
0	1323	139.483404532693	194
0	1323	139.483404532693	194
0	1323	139.483404532693	194
0	1339	140.647929267877	195
0	1339	140.647929267877	196
0	1339	140.647929267877	196
0	1339	140.647929267877	196
0	1355	142.102717021167	197
0	1355	142.102717021167	198
0	1355	142.102717021167	198
0	1355	142.102717021167	198
0	1374	143.972394585995	199
0	1374	143.972394585995	200
0	1374	143.972394585995	200
0	1374	143.972394585995	200
0	1390	145.394823613264	201
0	1390	145.394823613264	202
0	1390	145.394823613264	202
0	1390	145.394823613264	202
0	1398	146.782821944602	203
0	1398	146.782821944602	204
0	1398	146.782821944602	204
0	1398	146.782821944602	204
0	1417	148.242202834845	205
0	1417	148.242202834845	206
0	1417	148.242202834845	206
0	1417	148.242202834845	206
0	1434	150.139848928819	207
0	1434	150.139848928819	208
0	1434	150.139848928819	208
0	1434	150.139848928819	208
0	1451	151.91983191079	209
0	1451	151.91983191079	210
0	1451	151.91983191079	210
0	1451	151.91983191079	210
0	1462	153.855686369739	211
0	1462	153.855686369739	212
0	1462	153.855686369739	212
0	1462	153.855686369739	212
0	1481	155.446797599472	213
0	1481	155.446797599472	214
0	1481	155.446797599472	214
0	1481	155.446797599472	214
0	1498	157.013383689258	215
0	1498	157.013383689258	216
0	1498	157.013383689258	216
0	1498	157.013383689258	216
0	1512	158.988538189713	217
0	1512	158.988538189713	218
0	1512	158.988538189713	218
0	1512	158.988538189713	218
0	1526	160.31954974813	219
0	1526	160.31954974813	220
0	1526	160.31954974813	220
0	1526	160.31954974813	220
0	1543	161.971289161514	221
0	1543	161.971289161514	222
0	1543	161.971289161514	222
0	1543	161.971289161514	222
0	1562	163.580709752315	223
0	1562	163.580709752315	224
0	1562	163.580709752315	224
0	1562	163.580709752315	224
0	1579	165.456464856551	225
0	1579	165.456464856551	226
0	1579	165.456464856551	226
0	1579	165.456464856551	226
0	1590	166.47626193861	227
0	1590	166.47626193861	228
0	1590	166.47626193861	228
0	1590	166.47626193861	228
0	1593	167.767732979418	229
0	1593	167.767732979418	230
0	1593	167.767732979418	230
0	1593	167.767732979418	230
0	1608	168.800697110282	231
0	1608	168.800697110282	232
0	1608	168.800697110282	232
0	1608	168.800697110282	232
0	1625	170.604499571645	233
0	1625	170.604499571645	234
0	1625	170.604499571645	234
0	1625	170.604499571645	234
0	1636	172.368754884149	235
0	1636	172.368754884149	236
0	1636	172.368754884149	236
0	1636	172.368754884149	236
0	1647	174.0100833689	237
0	1647	174.0100833689	238
0	1647	174.0100833689	238
0	1647	174.0100833689	238
0	1664	175.634682133249	239
0	1664	175.634682133249	240
0	1664	175.634682133249	240
0	1664	175.634682133249	240
0	1678	177.322820168608	241
0	1678	177.322820168608	242
0	1678	177.322820168608	242
0	1678	177.322820168608	242
0	1697	178.448568866276	243
0	1697	178.448568866276	244
0	1697	178.448568866276	244
0	1697	178.448568866276	244
0	1702	179.863775585233	245
0	1702	179.863775585233	246
0	1702	179.863775585233	246
0	1702	179.863775585233	246
0	1719	181.783747757706	247
0	1719	181.783747757706	248
0	1719	181.783747757706	248
0	1719	181.783747757706	248
0	1727	183.469063873789	249
0	1727	183.469063873789	250
0	1727	183.469063873789	250
0	1727	183.469063873789	250
0	1743	185.052622075812	251
0	1743	185.052622075812	252
0	1743	185.052622075812	252
0	1743	185.052622075812	252
0	1755	186.676292940197	253
0	1755	186.676292940197	254
0	1755	186.676292940197	254
0	1755	186.676292940197	254
0	1771	187.9732536405	255
0	1771	187.9732536405	256
0	1771	187.9732536405	256
0	1771	187.9732536405	256
0	1776	189.734879157427	257
0	1776	189.734879157427	258
0	1776	189.734879157427	258
0	1776	189.734879157427	258
0	1795	191.197052684999	259
0	1795	191.197052684999	260
0	1795	191.197052684999	260
0	1795	191.197052684999	260
0	1798	192.531581934928	261
0	1798	192.531581934928	262
0	1798	192.531581934928	262
0	1798	192.531581934928	262
0	1809	193.74001433576	263
0	1809	193.74001433576	264
0	1809	193.74001433576	264
0	1809	193.74001433576	264
0	1826	195.464190848558	265
0	1826	195.464190848558	266
0	1826	195.464190848558	266
0	1826	195.464190848558	266
0	1843	197.270446415911	267
0	1843	197.270446415911	268
0	1843	197.270446415911	268
0	1843	197.270446415911	268
0	1846	199.208361542006	269
0	1846	199.208361542006	270
0	1846	199.208361542006	270
0	1846	199.208361542006	270
0	1865	201.020070887324	271
0	1865	201.020070887324	272
0	1865	201.020070887324	272
0	1865	201.020070887324	272
0	1881	202.382414532047	273
0	1881	202.382414532047	274
0	1881	202.382414532047	274
0	1881	202.382414532047	274
0	1892	204.3578358499	275
0	1892	204.3578358499	276
0	1892	204.3578358499	276
0	1892	204.3578358499	276
0	1909	205.785566551997	277
0	1909	205.785566551997	278
0	1909	205.785566551997	278
0	1909	205.785566551997	278
0	1928	207.121902374238	279
0	1928	207.121902374238	280
0	1928	207.121902374238	280
0	1928	207.121902374238	280
0	1942	208.214205757169	281
0	1942	208.214205757169	282
0	1942	208.214205757169	282
0	1942	208.214205757169	282
0	1961	210.031055960957	283
0	1961	210.031055960957	284
0	1961	210.031055960957	284
0	1961	210.031055960957	284
0	1964	211.291959012546	285
0	1964	211.291959012546	286
0	1964	211.291959012546	286
0	1964	211.291959012546	286
0	1978	213.110908024865	287
0	1978	213.110908024865	288
0	1978	213.110908024865	288
0	1978	213.110908024865	288
0	1997	214.85666170848	289
0	1997	214.85666170848	290
0	1997	214.85666170848	290
0	1997	214.85666170848	290
0	2016	216.342338834344	291
0	2016	216.342338834344	292
0	2016	216.342338834344	292
0	2016	216.342338834344	292
0	2030	217.506940207132	293
0	2030	217.506940207132	294
0	2030	217.506940207132	294
0	2030	217.506940207132	294
0	2044	219.295705043399	295
0	2044	219.295705043399	296
0	2044	219.295705043399	296
0	2044	219.295705043399	296
0	2059	220.827367124302	297
0	2059	220.827367124302	298
0	2059	220.827367124302	298
0	2059	220.827367124302	298
0	2062	222.770233465746	299
0	2062	222.770233465746	300
0	2062	222.770233465746	300
0	2062	222.770233465746	300
0	2081	224.508257785501	301
0	2081	224.508257785501	302
0	2081	224.508257785501	302
0	2081	224.508257785501	302
0	2098	226.071636902556	303
0	2098	226.071636902556	304
0	2098	226.071636902556	304
0	2098	226.071636902556	304
0	2109	227.454578162093	305
0	2109	227.454578162093	306
0	2109	227.454578162093	306
0	2109	227.454578162093	306
0	2120	229.123559248556	307
0	2120	229.123559248556	308
0	2120	229.123559248556	308
0	2120	229.123559248556	308
0	2136	230.231556245979	309
0	2136	230.231556245979	310
0	2136	230.231556245979	310
0	2136	230.231556245979	310
0	2147	232.217632912487	311
0	2147	232.217632912487	312
0	2147	232.217632912487	312
0	2147	232.217632912487	312
0	2166	234.193063981986	313
0	2166	234.193063981986	314
0	2166	234.193063981986	314
0	2166	234.193063981986	314
0	2169	235.390863456685	315
0	2169	235.390863456685	316
0	2169	235.390863456685	316
0	2169	235.390863456685	316
0	2184	237.349695841936	317
0	2184	237.349695841936	318
0	2184	237.349695841936	318
0	2184	237.349695841936	318
0	2201	238.933210975179	319
0	2201	238.933210975179	320
0	2201	238.933210975179	320
0	2201	238.933210975179	320
1	2	0.317709797404	1
1	2	0.317709797404	2
1	19	1.437061013081	3
1	19	1.437061013081	4
1	39	2.530227823852	5
1	39	2.530227823852	6
1	52	3.620318686187	7
1	52	3.620318686187	8
1	67	5.615519170296	9
1	67	5.615519170296	10
1	90	7.615682530455	11
1	90	7.615682530455	12
1	111	11.08994602648	13
1	111	11.08994602648	14
1	130	12.067587770017	15
1	130	12.067587770017	16
1	141	13.357004604845	17
1	141	13.357004604845	18
1	160	14.259627184564	19
1	160	14.259627184564	20
1	179	15.546731937612	21
1	179	15.546731937612	22
1	192	17.208768545732	23
1	192	17.208768545732	24
1	214	19.894629266141	25
1	214	19.894629266141	26
1	248	24.075915969163	27
1	248	24.075915969163	28
1	264	25.105574998878	29
1	264	25.105574998878	30
1	277	26.633894706381	31
1	277	26.633894706381	32
1	294	27.926310188974	33
1	294	27.926310188974	34
1	313	29.198172354555	35
1	313	29.198172354555	36
1	327	30.203982293318	37
1	327	30.203982293318	38
1	338	32.120043658029	39
1	338	32.120043658029	40
1	364	34.480429484825	41
1	364	34.480429484825	42
1	368	36.166052010122	43
1	368	36.166052010122	44
1	385	37.516650904493	45
1	385	37.516650904493	46
1	405	38.835249349895	47
1	405	38.835249349895	48
1	423	41.456782362336	49
1	423	41.456782362336	50
1	457	46.524221027013	51
1	457	46.524221027013	52
1	462	48.113462319704	53
1	462	48.113462319704	54
1	479	49.960284333715	55
1	479	49.960284333715	56
1	496	51.621170662477	57
1	496	51.621170662477	58
1	516	53.431228862711	59
1	516	53.431228862711	60
1	549	59.464177709122	61
1	549	59.464177709122	62
1	565	60.902396225833	63
1	565	60.902396225833	64
1	579	62.842938333879	65
1	579	62.842938333879	66
1	603	64.537912799261	67
1	603	64.537912799261	68
1	614	65.488582814302	69
1	614	65.488582814302	70
1	630	67.094143289547	71
1	630	67.094143289547	72
1	645	68.792148451664	73
1	645	68.792148451664	74
1	654	69.960249578243	75
1	654	69.960249578243	76
1	683	76.04793444265	77
1	683	76.04793444265	78
1	695	77.518784728445	79
1	695	77.518784728445	80
1	707	79.070396393404	81
1	707	79.070396393404	82
1	725	80.67456311295	83
1	725	80.67456311295	84
1	731	82.384598495842	85
1	731	82.384598495842	86
1	761	84.087261508837	87
1	761	84.087261508837	88
1	779	84.910786638475	89
1	779	84.910786638475	90
1	784	86.101876206643	91
1	784	86.101876206643	92
1	792	88.039648922065	93
1	792	88.039648922065	94
1	809	89.809798425245	95
1	809	89.809798425245	96
1	818	91.636578551186	97
1	818	91.636578551186	98
1	844	93.131809888943	99
1	844	93.131809888943	100
1	861	94.690543148304	101
1	861	94.690543148304	102
1	869	95.651245578085	103
1	869	95.651245578085	104
1	887	96.921223455623	105
1	887	96.921223455623	106
1	904	98.768303332943	107
1	904	98.768303332943	108
1	937	100.897512201558	109
1	937	100.897512201558	110
1	955	102.415658534989	111
1	955	102.415658534989	112
1	972	103.779501648982	113
1	972	103.779501648982	114
1	991	104.85112682264	115
1	991	104.85112682264	116
1	1014	107.397011321487	117
1	1014	107.397011321487	118
1	1021	108.330668250771	119
1	1021	108.330668250771	120
1	1055	111.301904723702	121
1	1055	111.301904723702	122
1	1072	112.538335636705	123
1	1072	112.538335636705	124
1	1090	114.337555045168	125
1	1090	114.337555045168	126
1	1112	116.950706036095	127
1	1112	116.950706036095	128
1	1131	118.719954770691	129
1	1131	118.719954770691	130
1	1162	121.295884813188	131
1	1162	121.295884813188	132
1	1199	125.758627570953	133
1	1199	125.758627570953	134
1	1206	126.61648248128	135
1	1206	126.61648248128	136
1	1218	128.314927588102	137
1	1218	128.314927588102	138
1	1233	129.961491140091	139
1	1233	129.961491140091	140
1	1264	133.880978914268	141
1	1264	133.880978914268	142
1	1279	135.523827172423	143
1	1279	135.523827172423	144
1	1294	136.457907702107	145
1	1294	136.457907702107	146
1	1309	138.284426759026	147
1	1309	138.284426759026	148
1	1325	139.683000386801	149
1	1325	139.683000386801	150
1	1350	141.04682883892	151
1	1350	141.04682883892	152
1	1356	142.182438748415	153
1	1356	142.182438748415	154
1	1375	144.036635845789	155
1	1375	144.036635845789	156
1	1392	145.58625727883	157
1	1392	145.58625727883	158
1	1409	147.025693174063	159
1	1409	147.025693174063	160
1	1419	148.309549678638	161
1	1419	148.309549678638	162
1	1435	150.311519671494	163
1	1435	150.311519671494	164
1	1455	152.109710159041	165
1	1455	152.109710159041	166
1	1464	153.934437958757	167
1	1464	153.934437958757	168
1	1482	155.614560514708	169
1	1482	155.614560514708	170
1	1499	157.093060369308	171
1	1499	157.093060369308	172
1	1513	159.01812777808	173
1	1513	159.01812777808	174
1	1528	160.516978403622	175
1	1528	160.516978403622	176
1	1549	162.138717001125	177
1	1549	162.138717001125	178
1	1563	163.635709302235	179
1	1563	163.635709302235	180
1	1583	165.631909003596	181
1	1583	165.631909003596	182
1	1610	168.883065691812	183
1	1610	168.883065691812	184
1	1628	170.723927858656	185
1	1628	170.723927858656	186
1	1640	172.511142127011	187
1	1640	172.511142127011	188
1	1648	174.073252704721	189
1	1648	174.073252704721	190
1	1665	175.771975449224	191
1	1665	175.771975449224	192
1	1679	177.351930973944	193
1	1679	177.351930973944	194
1	1698	178.506510478093	195
1	1698	178.506510478093	196
1	1704	180.055015240786	197
1	1704	180.055015240786	198
1	1720	181.855671322816	199
1	1720	181.855671322816	200
1	1728	183.588101779713	201
1	1728	183.588101779713	202
1	1757	186.817508389503	203
1	1757	186.817508389503	204
1	1773	188.050842119625	205
1	1773	188.050842119625	206
1	1782	190.103195938911	207
1	1782	190.103195938911	208
1	1799	192.603776640198	209
1	1799	192.603776640198	210
1	1810	193.8759664482	211
1	1810	193.8759664482	212
1	1827	195.524877992561	213
1	1827	195.524877992561	214
1	1848	199.379922003418	215
1	1848	199.379922003418	216
1	1869	201.187104995984	217
1	1869	201.187104995984	218
1	1883	202.539039600253	219
1	1883	202.539039600253	220
1	1894	204.532204721059	221
1	1894	204.532204721059	222
1	1910	205.899983856002	223
1	1910	205.899983856002	224
1	1929	207.165502271679	225
1	1929	207.165502271679	226
1	1944	208.309623586525	227
1	1944	208.309623586525	228
1	1973	211.775357524131	229
1	1973	211.775357524131	230
1	1979	213.226218817686	231
1	1979	213.226218817686	232
1	1998	214.949670194519	233
1	1998	214.949670194519	234
1	2017	216.393585644764	235
1	2017	216.393585644764	236
1	2036	217.686498672168	237
1	2036	217.686498672168	238
1	2063	222.937331533007	239
1	2063	222.937331533007	240
1	2083	224.676850422766	241
1	2083	224.676850422766	242
1	2104	226.361663410423	243
1	2104	226.361663410423	244
1	2115	227.655328671582	245
1	2115	227.655328671582	246
1	2121	229.165631891365	247
1	2121	229.165631891365	248
1	2140	230.429854802723	249
1	2140	230.429854802723	250
1	2148	232.271307169049	251
1	2148	232.271307169049	252
1	2186	237.533181477797	253
1	2186	237.533181477797	254
2	2	0.317709797404	1
2	19	1.437061013081	2
2	28	1.672032773108	3
2	39	2.530227823852	4
2	52	3.620318686187	5
2	59	3.85925747545	6
2	67	5.615519170296	7
2	90	7.615682530455	8
2	111	11.08994602648	9
2	120	11.365808829667	10
2	130	12.067587770017	11
2	141	13.357004604845	12
2	156	13.685703903242	13
2	160	14.259627184564	14
2	168	14.454528657295	15
2	179	15.546731937612	16
2	192	17.208768545732	17
2	194	17.272161649712	18
2	214	19.894629266141	19
2	224	20.070415259426	20
2	248	24.075915969163	21
2	260	24.308803243092	22
2	264	25.105574998878	23
2	277	26.633894706381	24
2	285	26.857851530009	25
2	294	27.926310188974	26
2	306	28.140626941493	27
2	313	29.198172354555	28
2	321	29.361685711927	29
2	327	30.203982293318	30
2	338	32.120043658029	31
2	364	34.480429484825	32
2	368	36.166052010122	33
2	373	36.49091115026	34
2	385	37.516650904493	35
2	394	37.783548222218	36
2	405	38.835249349895	37
2	409	38.960971616719	38
2	423	41.456782362336	39
2	457	46.524221027013	40
2	462	48.113462319704	41
2	479	49.960284333715	42
2	490	50.270227780856	43
2	496	51.621170662477	44
2	499	51.740131555734	45
2	516	53.431228862711	46
2	519	53.776477551574	47
2	549	59.464177709122	48
2	557	59.739049027295	49
2	565	60.902396225833	50
2	576	61.341437230773	51
2	579	62.842938333879	52
2	581	62.914648612506	53
2	603	64.537912799261	54
2	614	65.488582814302	55
2	615	65.490251461033	56
2	630	67.094143289547	57
2	635	67.155569754467	58
2	645	68.792148451664	59
2	651	69.072494307667	60
2	654	69.960249578243	61
2	665	70.192139676183	62
2	683	76.04793444265	63
2	688	76.340780559527	64
2	695	77.518784728445	65
2	701	77.721197592913	66
2	707	79.070396393404	67
2	714	79.222364321711	68
2	725	80.67456311295	69
2	731	82.384598495842	70
2	735	82.509562773063	71
2	761	84.087261508837	72
2	779	84.910786638475	73
2	784	86.101876206643	74
2	790	86.379956572675	75
2	792	88.039648922065	76
2	809	89.809798425245	77
2	815	90.031284575081	78
2	818	91.636578551186	79
2	825	91.971607775164	80
2	844	93.131809888943	81
2	861	94.690543148304	82
2	869	95.651245578085	83
2	881	95.907809137381	84
2	887	96.921223455623	85
2	898	97.179238061232	86
2	904	98.768303332943	87
2	937	100.897512201558	88
2	943	101.240878099904	89
2	955	102.415658534989	90
2	960	102.717810839605	91
2	972	103.779501648982	92
2	979	103.993599890768	93
2	991	104.85112682264	94
2	994	104.946250633257	95
2	1014	107.397011321487	96
2	1019	107.666636105512	97
2	1021	108.330668250771	98
2	1055	111.301904723702	99
2	1072	112.538335636705	100
2	1080	112.749229324043	101
2	1090	114.337555045168	102
2	1112	116.950706036095	103
2	1116	117.028698695483	104
2	1131	118.719954770691	105
2	1162	121.295884813188	106
2	1199	125.758627570953	107
2	1206	126.61648248128	108
2	1213	126.799002216038	109
2	1218	128.314927588102	110
2	1233	129.961491140091	111
2	1237	130.092354726844	112
2	1264	133.880978914268	113
2	1271	134.07438691104	114
2	1279	135.523827172423	115
2	1286	135.756337995446	116
2	1294	136.457907702107	117
2	1309	138.284426759026	118
2	1325	139.683000386801	119
2	1333	139.929366802202	120
2	1350	141.04682883892	121
2	1356	142.182438748415	122
2	1359	142.271285959579	123
2	1375	144.036635845789	124
2	1392	145.58625727883	125
2	1397	145.839398594575	126
2	1409	147.025693174063	127
2	1419	148.309549678638	128
2	1432	148.633466029961	129
2	1435	150.311519671494	130
2	1455	152.109710159041	131
2	1464	153.934437958757	132
2	1470	154.286008546824	133
2	1482	155.614560514708	134
2	1489	155.791837770689	135
2	1499	157.093060369308	136
2	1513	159.01812777808	137
2	1528	160.516978403622	138
2	1534	160.692095519441	139
2	1549	162.138717001125	140
2	1553	162.236282923739	141
2	1563	163.635709302235	142
2	1572	163.839787098419	143
2	1583	165.631909003596	144
2	1610	168.883065691812	145
2	1618	169.053926559565	146
2	1628	170.723927858656	147
2	1640	172.511142127011	148
2	1645	172.655642178999	149
2	1648	174.073252704721	150
2	1659	174.419572838373	151
2	1665	175.771975449224	152
2	1671	175.908562079331	153
2	1679	177.351930973944	154
2	1685	177.572470609166	155
2	1698	178.506510478093	156
2	1704	180.055015240786	157
2	1714	180.22644671522	158
2	1720	181.855671322816	159
2	1728	183.588101779713	160
2	1736	183.845450366327	161
2	1757	186.817508389503	162
2	1773	188.050842119625	163
2	1782	190.103195938911	164
2	1799	192.603776640198	165
2	1806	192.928015689447	166
2	1810	193.8759664482	167
2	1827	195.524877992561	168
2	1840	195.864882758325	169
2	1848	199.379922003418	170
2	1869	201.187104995984	171
2	1883	202.539039600253	172
2	1891	202.771443143283	173
2	1894	204.532204721059	174
2	1898	204.76672719672	175
2	1910	205.899983856002	176