file 4909064 1697035009                                         
version 3
run General-0-20231011-16:30:32-11605
attr configname General
attr datetime 20231011-16:30:32
attr datetimef 20231011-163032
attr experiment General
attr inifile omnetpp.ini
attr iterationvars ""
attr iterationvarsd ""
attr iterationvarsf ""
attr measurement ""
attr network Reliability
attr processid 11605
attr repetition 0
attr replication #0
attr resultdir results
attr runnumber 0
attr seedset 0
config network Reliability
config Reliability.node[*].transmissionTime "uniform(1s, 2s)"
config Reliability.node[*].delayTime "uniform(0.01s, 0.2s)"
config Reliability.node[*].lossProbability 0.2
config record-eventlog true
config sim-time-limit 240s
config repeat 5

vector 0 Reliability.node[0] txVector ETV
vector 1 Reliability.node[0] rxVector ETV
vector 2 Reliability.node[1] rxVector ETV
vector 3 Reliability.node[1] txVector ETV
vector 4 Reliability.node[2] rxVector ETV
vector 5 Reliability.node[2] txVector ETV
vector 6 Reliability.node[4] rxVector ETV
vector 7 Reliability.node[4] txVector ETV
vector 8 Reliability.node[3] rxVector ETV
vector 9 Reliability.node[3] txVector ETV
vector 10 Reliability.node[6] rxVector ETV
vector 11 Reliability.node[6] txVector ETV
vector 12 Reliability.node[5] rxVector ETV
vector 13 Reliability.node[7] rxVector ETV
vector 14 Reliability.node[7] txVector ETV
0	1314 981524 0 23249 0 169.180235121402 32768 1 46533 760446328 23582035608308
0	982838 1012086 23250 45921 169.18853918347 212.388591776229 32768 46534 93297 2290962227 1.6613537898e+14
1	1994924 990593 1 51595 0.114274565438 220.656086770252 32768 1 32068 523799735 11191726739267
0	2985517 1000672 45921 67114 212.388591776229 239.999010016983 31525 93298 138328 3651821011 4.2835010004805e+14
1	3986189 316725 51596 67114 220.657336170664 239.999010016983 10253 32069 42144 380490111 14206726108157
2	4302914 128396 2 67102 0.384435110221 239.986745164916 4374 1 4214 9125822 25535992166
3	4431310 130075 2 67102 0.384435110221 239.986745164916 4374 3 12642 27377466 229823929494
4	4561385 127583 3 67091 0.408959622253 239.973299981565 4346 1 4263 9217186 26156274052
5	4688968 128153 3 67091 0.408959622253 239.973299981565 4346 2 8526 18434372 104625096208
6	4817121 25935 4 67110 0.869364631832 239.996185022588 918 1 616 286562 118662226
7	4843056 26473 4 67110 0.869364631832 239.996185022588 918 3 1848 859686 1067960034
8	4869529 12777 7 67043 0.949848050521 239.922806792463 454 1 433 97609 28126025
9	4882306 12957 7 67043 0.949848050521 239.922806792463 454 3 1299 292827 253134225
10	4895263 4757 10 66207 1.769504729052 238.954876127887 168 1 111 9195 685323
11	4900020 4863 10 66207 1.769504729052 238.954876127887 168 3 333 27585 6167907
12	4904883 2735 15 65750 2.07400815907 238.465824227412 97 1 97 4753 308945
13	4907618 720 19 61240 3.562850953937 233.191039589716 26 1 26 351 6201
14	4908338 725 19 61240 3.562850953937 233.191039589716 26 2 52 702 24804

