version 3
run General-2-20231019-19:13:55-57309
attr configname General
attr datetime 20231019-19:13:55
attr datetimef 20231019-191355
attr experiment General
attr inifile omnetpp.ini
attr iterationvars ""
attr iterationvarsd ""
attr iterationvarsf ""
attr measurement ""
attr network Reliability
attr processid 57309
attr repetition 2
attr replication #2
attr resultdir results
attr runnumber 2
attr seedset 2
config network Reliability
config Reliability.node[*].transmissionTime "uniform(1s, 2s)"
config Reliability.node[*].delayTime "uniform(0.01s, 0.2s)"
config Reliability.node[0].lossProbability 0.3
config Reliability.node[1].lossProbability 0.3
config Reliability.node[2].lossProbability 0.3
config Reliability.node[3].lossProbability 0.3/2
config Reliability.node[4].lossProbability 0.3/2
config Reliability.node[5].lossProbability 0.3*2
config Reliability.node[6].lossProbability 0.3*2
config Reliability.node[7].lossProbability 0.3*3
config record-eventlog true
config sim-time-limit 240s
config repeat 5

vector 0 Reliability.node[0] txVector ETV
vector 1 Reliability.node[2] txVector ETV
vector 2 Reliability.node[2] rxVector ETV
vector 3 Reliability.node[1] txVector ETV
vector 4 Reliability.node[1] rxVector ETV
vector 5 Reliability.node[4] txVector ETV
vector 6 Reliability.node[4] rxVector ETV
vector 7 Reliability.node[0] rxVector ETV
vector 8 Reliability.node[6] txVector ETV
vector 9 Reliability.node[6] rxVector ETV
vector 10 Reliability.node[3] txVector ETV
vector 11 Reliability.node[3] rxVector ETV
vector 12 Reliability.node[5] txVector ETV
vector 13 Reliability.node[5] rxVector ETV
vector 14 Reliability.node[7] rxVector ETV
vector 15 Reliability.node[7] e2eVector ETV
0	1	0.092839031499	1
0	1	0.092839031499	2
0	1	0.092839031499	2
0	1	0.092839031499	2
0	20	2.024379895087	3
0	20	2.024379895087	4
0	20	2.024379895087	4
0	20	2.024379895087	4
0	23	3.529625983927	5
0	23	3.529625983927	6
0	23	3.529625983927	6
0	23	3.529625983927	6
0	26	4.645819306625	7
0	26	4.645819306625	8
0	26	4.645819306625	8
0	26	4.645819306625	8
0	45	6.242564614648	9
0	45	6.242564614648	10
0	45	6.242564614648	10
0	45	6.242564614648	10
0	59	7.557862095786	11
0	59	7.557862095786	12
0	59	7.557862095786	12
0	59	7.557862095786	12
0	78	8.625006464096	13
0	78	8.625006464096	14
0	78	8.625006464096	14
0	78	8.625006464096	14
0	94	9.630550885126	15
0	94	9.630550885126	16
0	94	9.630550885126	16
0	94	9.630550885126	16
0	111	10.672348591983	17
0	111	10.672348591983	18
0	111	10.672348591983	18
0	111	10.672348591983	18
0	127	12.479559732852	19
0	127	12.479559732852	20
0	127	12.479559732852	20
0	127	12.479559732852	20
0	136	13.666186876846	21
0	136	13.666186876846	22
0	136	13.666186876846	22
0	136	13.666186876846	22
0	145	15.450978799741	23
0	145	15.450978799741	24
0	145	15.450978799741	24
0	145	15.450978799741	24
0	148	17.094290226949	25
0	148	17.094290226949	26
0	148	17.094290226949	26
0	148	17.094290226949	26
0	159	18.930807878282	27
0	159	18.930807878282	28
0	159	18.930807878282	28
0	159	18.930807878282	28
0	174	20.520589869721	29
0	174	20.520589869721	30
0	174	20.520589869721	30
0	174	20.520589869721	30
0	188	22.393717209827	31
0	188	22.393717209827	32
0	188	22.393717209827	32
0	188	22.393717209827	32
0	203	23.875175367594	33
0	203	23.875175367594	34
0	203	23.875175367594	34
0	203	23.875175367594	34
0	220	25.503356586229	35
0	220	25.503356586229	36
0	220	25.503356586229	36
0	220	25.503356586229	36
0	237	26.63475119371	37
0	237	26.63475119371	38
0	237	26.63475119371	38
0	237	26.63475119371	38
0	254	28.582174535161	39
0	254	28.582174535161	40
0	254	28.582174535161	40
0	254	28.582174535161	40
0	263	30.274573778054	41
0	263	30.274573778054	42
0	263	30.274573778054	42
0	263	30.274573778054	42
0	280	31.665548040085	43
0	280	31.665548040085	44
0	280	31.665548040085	44
0	280	31.665548040085	44
0	297	32.753335597478	45
0	297	32.753335597478	46
0	297	32.753335597478	46
0	297	32.753335597478	46
0	311	33.961377214426	47
0	311	33.961377214426	48
0	311	33.961377214426	48
0	311	33.961377214426	48
0	328	34.990526534868	49
0	328	34.990526534868	50
0	328	34.990526534868	50
0	328	34.990526534868	50
0	339	36.950232530264	51
0	339	36.950232530264	52
0	339	36.950232530264	52
0	339	36.950232530264	52
0	353	38.204459220422	53
0	353	38.204459220422	54
0	353	38.204459220422	54
0	353	38.204459220422	54
0	372	39.406819887477	55
0	372	39.406819887477	56
0	372	39.406819887477	56
0	372	39.406819887477	56
0	375	40.541246645636	57
0	375	40.541246645636	58
0	375	40.541246645636	58
0	375	40.541246645636	58
0	392	42.020426971856	59
0	392	42.020426971856	60
0	392	42.020426971856	60
0	392	42.020426971856	60
0	408	43.733618929302	61
0	408	43.733618929302	62
0	408	43.733618929302	62
0	408	43.733618929302	62
0	411	45.401340477885	63
0	411	45.401340477885	64
0	411	45.401340477885	64
0	411	45.401340477885	64
0	428	47.277280550468	65
0	428	47.277280550468	66
0	428	47.277280550468	66
0	428	47.277280550468	66
0	447	48.814587369579	67
0	447	48.814587369579	68
0	447	48.814587369579	68
0	447	48.814587369579	68
0	464	50.555289278058	69
0	464	50.555289278058	70
0	464	50.555289278058	70
0	464	50.555289278058	70
0	481	51.909683557711	71
0	481	51.909683557711	72
0	481	51.909683557711	72
0	481	51.909683557711	72
0	495	52.913019000571	73
0	495	52.913019000571	74
0	495	52.913019000571	74
0	495	52.913019000571	74
0	512	54.842368177157	75
0	512	54.842368177157	76
0	512	54.842368177157	76
0	512	54.842368177157	76
0	528	56.53898929527	77
0	528	56.53898929527	78
0	528	56.53898929527	78
0	528	56.53898929527	78
0	542	58.300613746764	79
0	542	58.300613746764	80
0	542	58.300613746764	80
0	542	58.300613746764	80
0	556	59.993787005329	81
0	556	59.993787005329	82
0	556	59.993787005329	82
0	556	59.993787005329	82
0	570	61.214679972985	83
0	570	61.214679972985	84
0	570	61.214679972985	84
0	570	61.214679972985	84
0	581	62.351642325073	85
0	581	62.351642325073	86
0	581	62.351642325073	86
0	581	62.351642325073	86
0	595	63.636628944678	87
0	595	63.636628944678	88
0	595	63.636628944678	88
0	595	63.636628944678	88
0	612	65.634908473603	89
0	612	65.634908473603	90
0	612	65.634908473603	90
0	612	65.634908473603	90
0	629	67.225661714347	91
0	629	67.225661714347	92
0	629	67.225661714347	92
0	629	67.225661714347	92
0	648	69.12151556557	93
0	648	69.12151556557	94
0	648	69.12151556557	94
0	648	69.12151556557	94
0	667	70.622721597338	95
0	667	70.622721597338	96
0	667	70.622721597338	96
0	667	70.622721597338	96
0	675	71.966179874744	97
0	675	71.966179874744	98
0	675	71.966179874744	98
0	675	71.966179874744	98
0	684	73.724744666386	99
0	684	73.724744666386	100
0	684	73.724744666386	100
0	684	73.724744666386	100
0	700	75.580287644425	101
0	700	75.580287644425	102
0	700	75.580287644425	102
0	700	75.580287644425	102
0	719	77.479117748811	103
0	719	77.479117748811	104
0	719	77.479117748811	104
0	719	77.479117748811	104
0	727	79.202243642899	105
0	727	79.202243642899	106
0	727	79.202243642899	106
0	727	79.202243642899	106
0	743	81.091674240324	107
0	743	81.091674240324	108
0	743	81.091674240324	108
0	743	81.091674240324	108
0	746	83.048823763867	109
0	746	83.048823763867	110
0	746	83.048823763867	110
0	746	83.048823763867	110
0	749	84.633238963568	111
0	749	84.633238963568	112
0	749	84.633238963568	112
0	749	84.633238963568	112
0	766	86.115167863219	113
0	766	86.115167863219	114
0	766	86.115167863219	114
0	766	86.115167863219	114
0	780	87.544875289331	115
0	780	87.544875289331	116
0	780	87.544875289331	116
0	780	87.544875289331	116
0	789	88.985320077062	117
0	789	88.985320077062	118
0	789	88.985320077062	118
0	789	88.985320077062	118
0	803	90.141081057739	119
0	803	90.141081057739	120
0	803	90.141081057739	120
0	803	90.141081057739	120
0	819	92.12116723812	121
0	819	92.12116723812	122
0	819	92.12116723812	122
0	819	92.12116723812	122
0	833	93.636517799011	123
0	833	93.636517799011	124
0	833	93.636517799011	124
0	833	93.636517799011	124
0	847	95.529295998643	125
0	847	95.529295998643	126
0	847	95.529295998643	126
0	847	95.529295998643	126
0	864	97.110063966148	127
0	864	97.110063966148	128
0	864	97.110063966148	128
0	864	97.110063966148	128
0	880	98.885585194471	129
0	880	98.885585194471	130
0	880	98.885585194471	130
0	880	98.885585194471	130
0	891	100.218480715313	131
0	891	100.218480715313	132
0	891	100.218480715313	132
0	891	100.218480715313	132
0	894	101.840665961168	133
0	894	101.840665961168	134
0	894	101.840665961168	134
0	894	101.840665961168	134
0	908	103.342822619499	135
0	908	103.342822619499	136
0	908	103.342822619499	136
0	908	103.342822619499	136
0	925	104.816208576569	137
0	925	104.816208576569	138
0	925	104.816208576569	138
0	925	104.816208576569	138
0	939	106.591383818788	139
0	939	106.591383818788	140
0	939	106.591383818788	140
0	939	106.591383818788	140
0	953	108.31532726881	141
0	953	108.31532726881	142
0	953	108.31532726881	142
0	953	108.31532726881	142
0	961	110.074307168386	143
0	961	110.074307168386	144
0	961	110.074307168386	144
0	961	110.074307168386	144
0	964	111.473489383719	145
0	964	111.473489383719	146
0	964	111.473489383719	146
0	964	111.473489383719	146
0	983	113.090024689696	147
0	983	113.090024689696	148
0	983	113.090024689696	148
0	983	113.090024689696	148
0	999	115.004361850693	149
0	999	115.004361850693	150
0	999	115.004361850693	150
0	999	115.004361850693	150
0	1015	116.189820426068	151
0	1015	116.189820426068	152
0	1015	116.189820426068	152
0	1015	116.189820426068	152
0	1023	117.714770808368	153
0	1023	117.714770808368	154
0	1023	117.714770808368	154
0	1023	117.714770808368	154
0	1038	119.486300976965	155
0	1038	119.486300976965	156
0	1038	119.486300976965	156
0	1038	119.486300976965	156
0	1054	121.108143573878	157
0	1054	121.108143573878	158
0	1054	121.108143573878	158
0	1054	121.108143573878	158
0	1068	122.390779370227	159
0	1068	122.390779370227	160
0	1068	122.390779370227	160
0	1068	122.390779370227	160
0	1085	123.39846305225	161
0	1085	123.39846305225	162
0	1085	123.39846305225	162
0	1085	123.39846305225	162
0	1101	124.587047699159	163
0	1101	124.587047699159	164
0	1101	124.587047699159	164
0	1101	124.587047699159	164
0	1120	126.016901978543	165
0	1120	126.016901978543	166
0	1120	126.016901978543	166
0	1120	126.016901978543	166
0	1131	127.729354535248	167
0	1131	127.729354535248	168
0	1131	127.729354535248	168
0	1131	127.729354535248	168
0	1148	128.991911415495	169
0	1148	128.991911415495	170
0	1148	128.991911415495	170
0	1148	128.991911415495	170
0	1167	130.975367741212	171
0	1167	130.975367741212	172
0	1167	130.975367741212	172
0	1167	130.975367741212	172
0	1183	132.272538532288	173
0	1183	132.272538532288	174
0	1183	132.272538532288	174
0	1183	132.272538532288	174
0	1202	134.067003194493	175
0	1202	134.067003194493	176
0	1202	134.067003194493	176
0	1202	134.067003194493	176
0	1205	135.740468116727	177
0	1205	135.740468116727	178
0	1205	135.740468116727	178
0	1205	135.740468116727	178
0	1210	137.668865691422	179
0	1210	137.668865691422	180
0	1210	137.668865691422	180
0	1210	137.668865691422	180
0	1229	139.137177602405	181
0	1229	139.137177602405	182
0	1229	139.137177602405	182
0	1229	139.137177602405	182
0	1232	140.354200835357	183
0	1232	140.354200835357	184
0	1232	140.354200835357	184
0	1232	140.354200835357	184
0	1249	141.891724046803	185
0	1249	141.891724046803	186
0	1249	141.891724046803	186
0	1249	141.891724046803	186
0	1268	143.254302429519	187
0	1268	143.254302429519	188
0	1268	143.254302429519	188
0	1268	143.254302429519	188
0	1276	144.354520011013	189
0	1276	144.354520011013	190
0	1276	144.354520011013	190
0	1276	144.354520011013	190
0	1293	146.3313843494	191
0	1293	146.3313843494	192
0	1293	146.3313843494	192
0	1293	146.3313843494	192
0	1310	148.318718586834	193
0	1310	148.318718586834	194
0	1310	148.318718586834	194
0	1310	148.318718586834	194
0	1327	150.210508666951	195
0	1327	150.210508666951	196
0	1327	150.210508666951	196
0	1327	150.210508666951	196
0	1344	151.786282398058	197
0	1344	151.786282398058	198
0	1344	151.786282398058	198
0	1344	151.786282398058	198
0	1361	153.523646197533	199
0	1361	153.523646197533	200
0	1361	153.523646197533	200
0	1361	153.523646197533	200
0	1376	155.026246097423	201
0	1376	155.026246097423	202
0	1376	155.026246097423	202
0	1376	155.026246097423	202
0	1387	156.307651110012	203
0	1387	156.307651110012	204
0	1387	156.307651110012	204
0	1387	156.307651110012	204
0	1406	158.263173013013	205
0	1406	158.263173013013	206
0	1406	158.263173013013	206
0	1406	158.263173013013	206
0	1425	159.479334134162	207
0	1425	159.479334134162	208
0	1425	159.479334134162	208
0	1425	159.479334134162	208
0	1439	160.718603526494	209
0	1439	160.718603526494	210
0	1439	160.718603526494	210
0	1439	160.718603526494	210
0	1442	162.032608028753	211
0	1442	162.032608028753	212
0	1442	162.032608028753	212
0	1442	162.032608028753	212
0	1456	163.693112089318	213
0	1456	163.693112089318	214
0	1456	163.693112089318	214
0	1456	163.693112089318	214
0	1472	165.688092102782	215
0	1472	165.688092102782	216
0	1472	165.688092102782	216
0	1472	165.688092102782	216
0	1489	166.725311211796	217
0	1489	166.725311211796	218
0	1489	166.725311211796	218
0	1489	166.725311211796	218
0	1508	168.233768677825	219
0	1508	168.233768677825	220
0	1508	168.233768677825	220
0	1508	168.233768677825	220
0	1511	169.260939605787	221
0	1511	169.260939605787	222
0	1511	169.260939605787	222
0	1511	169.260939605787	222
0	1528	170.549073460998	223
0	1528	170.549073460998	224
0	1528	170.549073460998	224
0	1528	170.549073460998	224
0	1531	172.429825180463	225
0	1531	172.429825180463	226
0	1531	172.429825180463	226
0	1531	172.429825180463	226
0	1542	174.107329514829	227
0	1542	174.107329514829	228
0	1542	174.107329514829	228
0	1542	174.107329514829	228
0	1556	175.321061671964	229
0	1556	175.321061671964	230
0	1556	175.321061671964	230
0	1556	175.321061671964	230
0	1570	176.9478622277	231
0	1570	176.9478622277	232
0	1570	176.9478622277	232
0	1570	176.9478622277	232
0	1586	178.759002099765	233
0	1586	178.759002099765	234
0	1586	178.759002099765	234
0	1586	178.759002099765	234
0	1595	180.593257108025	235
0	1595	180.593257108025	236
0	1595	180.593257108025	236
0	1595	180.593257108025	236
0	1611	182.124606220305	237
0	1611	182.124606220305	238
0	1611	182.124606220305	238
0	1611	182.124606220305	238
0	1625	183.926759876331	239
0	1625	183.926759876331	240
0	1625	183.926759876331	240
0	1625	183.926759876331	240
0	1642	185.338074591729	241
0	1642	185.338074591729	242
0	1642	185.338074591729	242
0	1642	185.338074591729	242
0	1659	187.177944420391	243
0	1659	187.177944420391	244
0	1659	187.177944420391	244
0	1659	187.177944420391	244
0	1676	189.152295176891	245
0	1676	189.152295176891	246
0	1676	189.152295176891	246
0	1676	189.152295176891	246
0	1695	190.809994087574	247
0	1695	190.809994087574	248
0	1695	190.809994087574	248
0	1695	190.809994087574	248
0	1698	192.55712243381	249
0	1698	192.55712243381	250
0	1698	192.55712243381	250
0	1698	192.55712243381	250
0	1703	193.867493915623	251
0	1703	193.867493915623	252
0	1703	193.867493915623	252
0	1703	193.867493915623	252
0	1717	195.387228152733	253
0	1717	195.387228152733	254
0	1717	195.387228152733	254
0	1717	195.387228152733	254
0	1731	196.650845835702	255
0	1731	196.650845835702	256
0	1731	196.650845835702	256
0	1731	196.650845835702	256
0	1748	197.838756706817	257
0	1748	197.838756706817	258
0	1748	197.838756706817	258
0	1748	197.838756706817	258
0	1751	199.545734408796	259
0	1751	199.545734408796	260
0	1751	199.545734408796	260
0	1751	199.545734408796	260
0	1754	201.395642558597	261
0	1754	201.395642558597	262
0	1754	201.395642558597	262
0	1754	201.395642558597	262
0	1765	202.902183717135	263
0	1765	202.902183717135	264
0	1765	202.902183717135	264
0	1765	202.902183717135	264
0	1770	204.382403753018	265
0	1770	204.382403753018	266
0	1770	204.382403753018	266
0	1770	204.382403753018	266
0	1787	206.276924862312	267
0	1787	206.276924862312	268
0	1787	206.276924862312	268
0	1787	206.276924862312	268
0	1806	207.37483534242	269
0	1806	207.37483534242	270
0	1806	207.37483534242	270
0	1806	207.37483534242	270
0	1825	208.669173011807	271
0	1825	208.669173011807	272
0	1825	208.669173011807	272
0	1825	208.669173011807	272
0	1844	210.269436584571	273
0	1844	210.269436584571	274
0	1844	210.269436584571	274
0	1844	210.269436584571	274
0	1861	212.236377473008	275
0	1861	212.236377473008	276
0	1861	212.236377473008	276
0	1861	212.236377473008	276
0	1880	213.440345261498	277
0	1880	213.440345261498	278
0	1880	213.440345261498	278
0	1880	213.440345261498	278
0	1897	215.179956109981	279
0	1897	215.179956109981	280
0	1897	215.179956109981	280
0	1897	215.179956109981	280
0	1900	216.938369649948	281
0	1900	216.938369649948	282
0	1900	216.938369649948	282
0	1900	216.938369649948	282
0	1914	218.919278567444	283
0	1914	218.919278567444	284
0	1914	218.919278567444	284
0	1914	218.919278567444	284
0	1931	220.438531434649	285
0	1931	220.438531434649	286
0	1931	220.438531434649	286
0	1931	220.438531434649	286
0	1939	222.000711169114	287
0	1939	222.000711169114	288
0	1939	222.000711169114	288
0	1939	222.000711169114	288
0	1958	223.973583988167	289
0	1958	223.973583988167	290
0	1958	223.973583988167	290
0	1958	223.973583988167	290
0	1972	225.713150697082	291
0	1972	225.713150697082	292
0	1972	225.713150697082	292
0	1972	225.713150697082	292
0	1986	227.171620721483	293
0	1986	227.171620721483	294
0	1986	227.171620721483	294
0	1986	227.171620721483	294
0	1989	228.329919219735	295
0	1989	228.329919219735	296
0	1989	228.329919219735	296
0	1989	228.329919219735	296
0	1997	229.65908901861	297
0	1997	229.65908901861	298
0	1997	229.65908901861	298
0	1997	229.65908901861	298
0	2002	230.757484938503	299
0	2002	230.757484938503	300
0	2002	230.757484938503	300
0	2002	230.757484938503	300
0	2019	231.81908440522	301
0	2019	231.81908440522	302
0	2019	231.81908440522	302
0	2019	231.81908440522	302
0	2031	233.185478405581	303
0	2031	233.185478405581	304
0	2031	233.185478405581	304
0	2031	233.185478405581	304
0	2037	234.479261198566	305
0	2037	234.479261198566	306
0	2037	234.479261198566	306
0	2037	234.479261198566	306
0	2051	235.830602827734	307
0	2051	235.830602827734	308
0	2051	235.830602827734	308
0	2051	235.830602827734	308
0	2068	237.351242164169	309
0	2068	237.351242164169	310
0	2068	237.351242164169	310
0	2068	237.351242164169	310
0	2085	238.986163821323	311
0	2085	238.986163821323	312
0	2085	238.986163821323	312
0	2085	238.986163821323	312
1	2	0.117765014803	1
1	2	0.117765014803	2
1	31	4.759734362531	3
1	31	4.759734362531	4
1	46	6.327471209359	5
1	46	6.327471209359	6
1	61	7.65985427208	7
1	61	7.65985427208	8
1	79	8.784988405667	9
1	79	8.784988405667	10
1	96	9.833418204493	11
1	96	9.833418204493	12
1	115	10.866855733737	13
1	115	10.866855733737	14
1	150	17.279617946655	15
1	150	17.279617946655	16
1	175	20.579929338284	17
1	175	20.579929338284	18
1	205	23.968958861395	19
1	205	23.968958861395	20
1	221	25.63275459602	21
1	221	25.63275459602	22
1	239	26.822069385383	23
1	239	26.822069385383	24
1	264	30.318472241557	25
1	264	30.318472241557	26
1	282	31.853417160926	27
1	282	31.853417160926	28
1	313	34.160862401118	29
1	313	34.160862401118	30
1	329	35.074626510001	31
1	329	35.074626510001	32
1	341	37.039633076708	33
1	341	37.039633076708	34
1	361	38.540934968972	35
1	361	38.540934968972	36
1	376	40.657208410973	37
1	376	40.657208410973	38
1	396	42.212768264026	39
1	396	42.212768264026	40
1	412	45.461989276322	41
1	412	45.461989276322	42
1	430	47.439435705805	43
1	430	47.439435705805	44
1	448	48.922292839919	45
1	448	48.922292839919	46
1	469	50.785330515345	47
1	469	50.785330515345	48
1	482	52.008747832281	49
1	482	52.008747832281	50
1	496	52.96820323725	51
1	496	52.96820323725	52
1	520	55.123589624619	53
1	520	55.123589624619	54
1	533	56.700397914441	55
1	533	56.700397914441	56
1	544	58.373685924944	57
1	544	58.373685924944	58
1	563	60.145649507501	59
1	563	60.145649507501	60
1	578	61.671054140445	61
1	578	61.671054140445	62
1	582	62.406055400248	63
1	582	62.406055400248	64
1	596	63.697786962122	65
1	596	63.697786962122	66
1	613	65.719458911155	67
1	613	65.719458911155	68
1	631	67.336440689983	69
1	631	67.336440689983	70
1	649	69.168004812668	71
1	649	69.168004812668	72
1	668	70.774152202853	73
1	668	70.774152202853	74
1	686	73.767471581278	75
1	686	73.767471581278	76
1	701	75.69123014172	77
1	701	75.69123014172	78
1	721	77.594155366576	79
1	721	77.594155366576	80
1	728	79.261590106391	81
1	728	79.261590106391	82
1	751	84.770935125166	83
1	751	84.770935125166	84
1	768	86.197087125037	85
1	768	86.197087125037	86
1	790	89.008576822009	87
1	790	89.008576822009	88
1	804	90.262103821408	89
1	804	90.262103821408	90
1	821	92.225952310267	91
1	821	92.225952310267	92
1	835	93.740156582874	93
1	835	93.740156582874	94
1	848	95.581583939664	95
1	848	95.581583939664	96
1	865	97.190654860079	97
1	865	97.190654860079	98
1	888	99.325106226482	99
1	888	99.325106226482	100
1	905	102.145269528359	101
1	905	102.145269528359	102
1	911	103.496820299082	103
1	911	103.496820299082	104
1	927	104.89039378663	105
1	927	104.89039378663	106
1	940	106.690094332252	107
1	940	106.690094332252	108
1	954	108.367979973325	109
1	954	108.367979973325	110
1	967	111.613747409896	111
1	967	111.613747409896	112
1	985	113.211895830572	113
1	985	113.211895830572	114
1	1000	115.064455786025	115
1	1000	115.064455786025	116
1	1017	116.295639795532	117
1	1017	116.295639795532	118
1	1049	119.933715086678	119
1	1049	119.933715086678	120
1	1058	121.388389152188	121
1	1058	121.388389152188	122
1	1069	122.519346234902	123
1	1069	122.519346234902	124
1	1086	123.553007493666	125
1	1086	123.553007493666	126
1	1102	124.644904236069	127
1	1102	124.644904236069	128
1	1121	126.124351084023	129
1	1121	126.124351084023	130
1	1132	127.758253226685	131
1	1132	127.758253226685	132
1	1149	129.053574773085	133
1	1149	129.053574773085	134
1	1168	131.101794291171	135
1	1168	131.101794291171	136
1	1184	132.320303436845	137
1	1184	132.320303436845	138
1	1207	135.789693229427	139
1	1207	135.789693229427	140
1	1211	137.840226202212	141
1	1211	137.840226202212	142
1	1233	140.387341344395	143
1	1233	140.387341344395	144
1	1250	141.924007673912	145
1	1250	141.924007673912	146
1	1269	143.280870512248	147
1	1269	143.280870512248	148
1	1277	144.389698306271	149
1	1277	144.389698306271	150
1	1294	146.442921202674	151
1	1294	146.442921202674	152
1	1312	148.52398890285	153
1	1312	148.52398890285	154
1	1345	151.809410486943	155
1	1345	151.809410486943	156
1	1377	155.099097082731	157
1	1377	155.099097082731	158
1	1388	156.394608377686	159
1	1388	156.394608377686	160
1	1408	158.341378542474	161
1	1408	158.341378542474	162
1	1429	159.626693752045	163
1	1429	159.626693752045	164
1	1443	162.200741505735	165
1	1443	162.200741505735	166
1	1466	164.023294448259	167
1	1466	164.023294448259	168
1	1473	165.773876094668	169
1	1473	165.773876094668	170
1	1490	166.797433578406	171
1	1490	166.797433578406	172
1	1515	169.429842874493	173
1	1515	169.429842874493	174
1	1533	172.523351916572	175
1	1533	172.523351916572	176
1	1544	174.296446066789	177
1	1544	174.296446066789	178
1	1557	175.417579281541	179
1	1557	175.417579281541	180
1	1571	177.052409017329	181
1	1571	177.052409017329	182
1	1601	180.886792072632	183
1	1601	180.886792072632	184
1	1613	182.210343771679	185
1	1613	182.210343771679	186
1	1630	184.119350929539	187
1	1630	184.119350929539	188
1	1644	185.545395559651	189
1	1644	185.545395559651	190
1	1664	187.380632610033	191
1	1664	187.380632610033	192
1	1677	189.254394706214	193
1	1677	189.254394706214	194
1	1700	192.739998769006	195
1	1700	192.739998769006	196
1	1704	193.895868053986	197
1	1704	193.895868053986	198
1	1721	195.537591789884	199
1	1721	195.537591789884	200
1	1743	197.069270131348	201
1	1743	197.069270131348	202
1	1756	201.516977582411	203
1	1756	201.516977582411	204
1	1766	202.927550944448	205
1	1766	202.927550944448	206
1	1772	204.549436655268	207
1	1772	204.549436655268	208
1	1788	206.324092691415	209
1	1788	206.324092691415	210
1	1808	207.483820001902	211
1	1808	207.483820001902	212
1	1826	208.740935072856	213
1	1826	208.740935072856	214
1	1845	210.389612681665	215
1	1845	210.389612681665	216
1	1862	212.408628605825	217
1	1862	212.408628605825	218
1	1883	213.594794238534	219
1	1883	213.594794238534	220
1	1901	217.031516030146	221
1	1901	217.031516030146	222
1	1917	219.026928684412	223
1	1917	219.026928684412	224
1	1932	220.465874605343	225
1	1932	220.465874605343	226
1	1941	222.136659585439	227
1	1941	222.136659585439	228
1	1963	224.106032995637	229
1	1963	224.106032995637	230
1	1973	225.786562262261	231
1	1973	225.786562262261	232
1	1990	228.367936489271	233
1	1990	228.367936489271	234
1	1999	229.745794316407	235
1	1999	229.745794316407	236
1	2004	230.859456833392	237
1	2004	230.859456833392	238
1	2038	234.562863523856	239
1	2038	234.562863523856	240
1	2053	235.952161243084	241
1	2053	235.952161243084	242
1	2086	239.008409653199	243
1	2086	239.008409653199	244
2	2	0.117765014803	1
2	31	4.759734362531	2
2	32	4.792157560529	3
2	46	6.327471209359	4
2	50	6.515903263506	5
2	61	7.65985427208	6
2	71	7.967485239482	7
2	79	8.784988405667	8
2	87	8.978968639152	9
2	96	9.833418204493	10
2	104	10.042045743161	11
2	115	10.866855733737	12
2	124	11.064464651703	13
2	150	17.279617946655	14
2	175	20.579929338284	15
2	179	20.712459994457	16
2	205	23.968958861395	17
2	210	24.095181155934	18
2	221	25.63275459602	19
2	224	25.704322574976	20
2	239	26.822069385383	21
2	250	27.043916673556	22
2	264	30.318472241557	23
2	269	30.448197260499	24
2	282	31.853417160926	25
2	285	32.025572095176	26
2	313	34.160862401118	27
2	315	34.256501552858	28
2	329	35.074626510001	29
2	335	35.380268281565	30
2	341	37.039633076708	31
2	349	37.222128200151	32
2	361	38.540934968972	33
2	376	40.657208410973	34
2	396	42.212768264026	35
2	412	45.461989276322	36
2	417	45.754635910217	37
2	430	47.439435705805	38
2	441	47.661626656076	39
2	448	48.922292839919	40
2	457	49.195544627918	41
2	469	50.785330515345	42
2	482	52.008747832281	43
2	496	52.96820323725	44
2	520	55.123589624619	45
2	533	56.700397914441	46
2	539	56.841980405871	47
2	544	58.373685924944	48
2	550	58.580210056421	49
2	563	60.145649507501	50
2	578	61.671054140445	51
2	582	62.406055400248	52
2	589	62.612969980584	53
2	596	63.697786962122	54
2	601	63.807289108067	55
2	613	65.719458911155	56
2	617	65.971662550207	57
2	631	67.336440689983	58
2	639	67.514798569392	59
2	649	69.168004812668	60
2	660	69.363403071631	61
2	668	70.774152202853	62
2	674	71.101896998612	63
2	686	73.767471581278	64
2	694	73.978444824809	65
2	701	75.69123014172	66
2	708	75.857160299711	67
2	721	77.594155366576	68
2	728	79.261590106391	69
2	737	79.504026565576	70
2	751	84.770935125166	71
2	768	86.197087125037	72
2	778	86.471059948841	73
2	790	89.008576822009	74
2	794	89.079547991204	75
2	804	90.262103821408	76
2	813	90.510668826009	77
2	821	92.225952310267	78
2	827	92.37879099167	79
2	835	93.740156582874	80
2	848	95.581583939664	81
2	856	95.865898205167	82
2	865	97.190654860079	83
2	874	97.475856496217	84
2	888	99.325106226482	85
2	905	102.145269528359	86
2	911	103.496820299082	87
2	927	104.89039378663	88
2	935	105.068097318443	89
2	940	106.690094332252	90
2	945	106.885680202581	91
2	954	108.367979973325	92
2	967	111.613747409896	93
2	985	113.211895830572	94
2	987	113.244867794774	95
2	1000	115.064455786025	96
2	1007	115.249679715644	97
2	1017	116.295639795532	98
2	1020	116.384263346592	99
2	1049	119.933715086678	100
2	1058	121.388389152188	101
2	1069	122.519346234902	102
2	1072	122.659725211869	103
2	1086	123.553007493666	104
2	1092	123.793200720656	105
2	1102	124.644904236069	106
2	1106	124.867931805001	107
2	1121	126.124351084023	108
2	1132	127.758253226685	109
2	1139	127.996467286418	110
2	1149	129.053574773085	111
2	1168	131.101794291171	112
2	1184	132.320303436845	113
2	1189	132.510169907822	114
2	1207	135.789693229427	115
2	1211	137.840226202212	116
2	1216	138.058260144406	117
2	1233	140.387341344395	118
2	1241	140.649649973101	119
2	1250	141.924007673912	120
2	1253	142.049430444221	121
2	1269	143.280870512248	122
2	1274	143.519536243685	123
2	1277	144.389698306271	124
2	1286	144.650516330407	125
2	1294	146.442921202674	126
2	1312	148.52398890285	127
2	1318	148.614522196364	128
2	1345	151.809410486943	129
2	1349	151.932331563101	130
2	1377	155.099097082731	131
2	1388	156.394608377686	132
2	1392	156.665446817872	133
2	1408	158.341378542474	134
2	1413	158.505050917476	135
2	1429	159.626693752045	136
2	1438	159.825191723187	137
2	1443	162.200741505735	138
2	1447	162.417931614521	139
2	1466	164.023294448259	140
2	1473	165.773876094668	141
2	1481	165.988090337093	142
2	1490	166.797433578406	143
2	1495	166.896830543768	144
2	1515	169.429842874493	145
2	1522	169.573577744869	146
2	1533	172.523351916572	147
2	1537	172.677854602997	148
2	1544	174.296446066789	149
2	1550	174.465169600701	150
2	1557	175.417579281541	151
2	1571	177.052409017329	152
2	1601	180.886792072632	153
2	1613	182.210343771679	154
2	1630	184.119350929539	155
2	1637	184.282851228082	156
2	1644	185.545395559651	157
2	1647	185.667820115579	158
2	1664	187.380632610033	159
2	1677	189.254394706214	160
2	1682	189.562649133305	161
2	1700	192.739998769006	162
2	1704	193.895868053986	163
2	1709	194.052595310971	164
2	1721	195.537591789884	165
2	1743	197.069270131348	166
2	1756	201.516977582411	167
2	1761	201.791006400858	168
2	1766	202.927550944448	169
2	1772	204.549436655268	170
2	1788	206.324092691415	171
2	1792	206.451052552592	172
2	1808	207.483820001902	173
2	1826	208.740935072856	174
2	1839	209.05282042839	175
2	1845	210.389612681665	176
2	1859	210.731376488089	177
2	1862	212.408628605825	178
2	1883	213.594794238534	179
2	1894	213.817008017866	180
2	1901	217.031516030146	181
2	1906	217.217487546492	182
2	1917	219.026928684412	183
2	1927	219.219738860587	184
2	1932	220.465874605343	185
2	1937	220.649859386225	186
2	1941	222.136659585439	187
2	1963	224.106032995637	188
2	1973	225.786562262261	189
2	1982	226.007111768401	190
2	1990	228.367936489271	191
2	1999	229.745794316407	192
2	2004	230.859456833392	193
2	2009	231.132885964362	194
2	2038	234.562863523856	195
2	2053	235.952161243084	196
2	2056	236.15228842567	197
2	2086	239.008409653199	198
3	3	0.148004626979	1