version 3
run General-3-20231019-19:13:55-57309
attr configname General
attr datetime 20231019-19:13:55
attr datetimef 20231019-191355
attr experiment General
attr inifile omnetpp.ini
attr iterationvars ""
attr iterationvarsd ""
attr iterationvarsf ""
attr measurement ""
attr network Reliability
attr processid 57309
attr repetition 3
attr replication #3
attr resultdir results
attr runnumber 3
attr seedset 3
config network Reliability
config Reliability.node[*].transmissionTime "uniform(1s, 2s)"
config Reliability.node[*].delayTime "uniform(0.01s, 0.2s)"
config Reliability.node[0].lossProbability 0.3
config Reliability.node[1].lossProbability 0.3
config Reliability.node[2].lossProbability 0.3
config Reliability.node[3].lossProbability 0.3/2
config Reliability.node[4].lossProbability 0.3/2
config Reliability.node[5].lossProbability 0.3*2
config Reliability.node[6].lossProbability 0.3*2
config Reliability.node[7].lossProbability 0.3*3
config record-eventlog true
config sim-time-limit 240s
config repeat 5

vector 0 Reliability.node[0] txVector ETV
vector 1 Reliability.node[1] txVector ETV
vector 2 Reliability.node[1] rxVector ETV
vector 3 Reliability.node[3] txVector ETV
vector 4 Reliability.node[3] rxVector ETV
vector 5 Reliability.node[4] txVector ETV
vector 6 Reliability.node[4] rxVector ETV
vector 7 Reliability.node[0] rxVector ETV
vector 8 Reliability.node[2] txVector ETV
vector 9 Reliability.node[2] rxVector ETV
vector 10 Reliability.node[6] txVector ETV
vector 11 Reliability.node[6] rxVector ETV
vector 12 Reliability.node[5] txVector ETV
vector 13 Reliability.node[5] rxVector ETV
vector 14 Reliability.node[7] rxVector ETV
vector 15 Reliability.node[7] e2eVector ETV
0	1	0.114651601831	1
0	1	0.114651601831	2
0	1	0.114651601831	2
0	1	0.114651601831	2
0	4	1.954600644134	3
0	4	1.954600644134	4
0	4	1.954600644134	4
0	4	1.954600644134	4
0	18	3.847547601977	5
0	18	3.847547601977	6
0	18	3.847547601977	6
0	18	3.847547601977	6
0	37	5.821195873035	7
0	37	5.821195873035	8
0	37	5.821195873035	8
0	37	5.821195873035	8
0	54	7.474606771324	9
0	54	7.474606771324	10
0	54	7.474606771324	10
0	54	7.474606771324	10
0	73	9.31564793114	11
0	73	9.31564793114	12
0	73	9.31564793114	12
0	73	9.31564793114	12
0	88	10.966124792885	13
0	88	10.966124792885	14
0	88	10.966124792885	14
0	88	10.966124792885	14
0	105	12.327775410445	15
0	105	12.327775410445	16
0	105	12.327775410445	16
0	105	12.327775410445	16
0	119	14.112712109763	17
0	119	14.112712109763	18
0	119	14.112712109763	18
0	119	14.112712109763	18
0	135	15.233329477323	19
0	135	15.233329477323	20
0	135	15.233329477323	20
0	135	15.233329477323	20
0	152	17.193036667838	21
0	152	17.193036667838	22
0	152	17.193036667838	22
0	152	17.193036667838	22
0	169	18.287918001714	23
0	169	18.287918001714	24
0	169	18.287918001714	24
0	169	18.287918001714	24
0	174	19.574967766481	25
0	174	19.574967766481	26
0	174	19.574967766481	26
0	174	19.574967766481	26
0	190	20.938044046119	27
0	190	20.938044046119	28
0	190	20.938044046119	28
0	190	20.938044046119	28
0	195	22.638555827152	29
0	195	22.638555827152	30
0	195	22.638555827152	30
0	195	22.638555827152	30
0	212	23.99530151563	31
0	212	23.99530151563	32
0	212	23.99530151563	32
0	212	23.99530151563	32
0	226	25.431658602387	33
0	226	25.431658602387	34
0	226	25.431658602387	34
0	226	25.431658602387	34
0	245	26.706296071943	35
0	245	26.706296071943	36
0	245	26.706296071943	36
0	245	26.706296071943	36
0	253	27.981848533332	37
0	253	27.981848533332	38
0	253	27.981848533332	38
0	253	27.981848533332	38
0	262	29.08242624609	39
0	262	29.08242624609	40
0	262	29.08242624609	40
0	262	29.08242624609	40
0	273	30.715082015677	41
0	273	30.715082015677	42
0	273	30.715082015677	42
0	273	30.715082015677	42
0	284	32.349855234681	43
0	284	32.349855234681	44
0	284	32.349855234681	44
0	284	32.349855234681	44
0	301	34.064741902121	45
0	301	34.064741902121	46
0	301	34.064741902121	46
0	301	34.064741902121	46
0	318	35.92799351115	47
0	318	35.92799351115	48
0	318	35.92799351115	48
0	318	35.92799351115	48
0	329	37.796548143097	49
0	329	37.796548143097	50
0	329	37.796548143097	50
0	329	37.796548143097	50
0	345	38.961147691191	51
0	345	38.961147691191	52
0	345	38.961147691191	52
0	345	38.961147691191	52
0	359	40.010204020257	53
0	359	40.010204020257	54
0	359	40.010204020257	54
0	359	40.010204020257	54
0	370	41.045862172798	55
0	370	41.045862172798	56
0	370	41.045862172798	56
0	370	41.045862172798	56
0	381	42.052556392106	57
0	381	42.052556392106	58
0	381	42.052556392106	58
0	381	42.052556392106	58
0	397	43.82030591585	59
0	397	43.82030591585	60
0	397	43.82030591585	60
0	397	43.82030591585	60
0	400	45.706790326929	61
0	400	45.706790326929	62
0	400	45.706790326929	62
0	400	45.706790326929	62
0	417	47.084139800698	63
0	417	47.084139800698	64
0	417	47.084139800698	64
0	417	47.084139800698	64
0	433	48.829505643875	65
0	433	48.829505643875	66
0	433	48.829505643875	66
0	433	48.829505643875	66
0	445	50.505509135148	67
0	445	50.505509135148	68
0	445	50.505509135148	68
0	445	50.505509135148	68
0	464	51.683274086167	69
0	464	51.683274086167	70
0	464	51.683274086167	70
0	464	51.683274086167	70
0	481	53.131927660734	71
0	481	53.131927660734	72
0	481	53.131927660734	72
0	481	53.131927660734	72
0	484	54.936043765231	73
0	484	54.936043765231	74
0	484	54.936043765231	74
0	484	54.936043765231	74
0	498	56.233635201652	75
0	498	56.233635201652	76
0	498	56.233635201652	76
0	498	56.233635201652	76
0	512	57.744108036926	77
0	512	57.744108036926	78
0	512	57.744108036926	78
0	512	57.744108036926	78
0	531	59.236605472464	79
0	531	59.236605472464	80
0	531	59.236605472464	80
0	531	59.236605472464	80
0	548	61.136651497401	81
0	548	61.136651497401	82
0	548	61.136651497401	82
0	548	61.136651497401	82
0	551	62.293392752131	83
0	551	62.293392752131	84
0	551	62.293392752131	84
0	551	62.293392752131	84
0	570	64.136809597324	85
0	570	64.136809597324	86
0	570	64.136809597324	86
0	570	64.136809597324	86
0	587	65.539675121495	87
0	587	65.539675121495	88
0	587	65.539675121495	88
0	587	65.539675121495	88
0	590	67.172893700955	89
0	590	67.172893700955	90
0	590	67.172893700955	90
0	590	67.172893700955	90
0	593	68.595430696217	91
0	593	68.595430696217	92
0	593	68.595430696217	92
0	593	68.595430696217	92
0	596	70.066159309886	93
0	596	70.066159309886	94
0	596	70.066159309886	94
0	596	70.066159309886	94
0	610	71.203438313279	95
0	610	71.203438313279	96
0	610	71.203438313279	96
0	610	71.203438313279	96
0	624	72.609540797604	97
0	624	72.609540797604	98
0	624	72.609540797604	98
0	624	72.609540797604	98
0	640	74.465701946823	99
0	640	74.465701946823	100
0	640	74.465701946823	100
0	640	74.465701946823	100
0	657	75.755902262705	101
0	657	75.755902262705	102
0	657	75.755902262705	102
0	657	75.755902262705	102
0	660	77.361836023463	103
0	660	77.361836023463	104
0	660	77.361836023463	104
0	660	77.361836023463	104
0	674	79.031214860568	105
0	674	79.031214860568	106
0	674	79.031214860568	106
0	674	79.031214860568	106
0	688	80.630513267659	107
0	688	80.630513267659	108
0	688	80.630513267659	108
0	688	80.630513267659	108
0	705	82.616209958747	109
0	705	82.616209958747	110
0	705	82.616209958747	110
0	705	82.616209958747	110
0	719	84.577125713296	111
0	719	84.577125713296	112
0	719	84.577125713296	112
0	719	84.577125713296	112
0	736	85.868849505039	113
0	736	85.868849505039	114
0	736	85.868849505039	114
0	736	85.868849505039	114
0	744	87.35808506475	115
0	744	87.35808506475	116
0	744	87.35808506475	116
0	744	87.35808506475	116
0	755	89.247044651603	117
0	755	89.247044651603	118
0	755	89.247044651603	118
0	755	89.247044651603	118
0	766	90.519043443791	119
0	766	90.519043443791	120
0	766	90.519043443791	120
0	766	90.519043443791	120
0	785	92.235146300235	121
0	785	92.235146300235	122
0	785	92.235146300235	122
0	785	92.235146300235	122
0	788	94.19651674742	123
0	788	94.19651674742	124
0	788	94.19651674742	124
0	788	94.19651674742	124
0	807	96.14677844925	125
0	807	96.14677844925	126
0	807	96.14677844925	126
0	807	96.14677844925	126
0	824	97.203926077412	127
0	824	97.203926077412	128
0	824	97.203926077412	128
0	824	97.203926077412	128
0	841	98.527492365634	129
0	841	98.527492365634	130
0	841	98.527492365634	130
0	841	98.527492365634	130
0	858	100.216296718057	131
0	858	100.216296718057	132
0	858	100.216296718057	132
0	858	100.216296718057	132
0	877	101.902489319045	133
0	877	101.902489319045	134
0	877	101.902489319045	134
0	877	101.902489319045	134
0	891	103.292467885485	135
0	891	103.292467885485	136
0	891	103.292467885485	136
0	891	103.292467885485	136
0	908	105.255684774436	137
0	908	105.255684774436	138
0	908	105.255684774436	138
0	908	105.255684774436	138
0	925	106.437406402381	139
0	925	106.437406402381	140
0	925	106.437406402381	140
0	925	106.437406402381	140
0	944	107.950292017378	141
0	944	107.950292017378	142
0	944	107.950292017378	142
0	944	107.950292017378	142
0	952	108.972631514605	143
0	952	108.972631514605	144
0	952	108.972631514605	144
0	952	108.972631514605	144
0	955	110.640277146196	145
0	955	110.640277146196	146
0	955	110.640277146196	146
0	955	110.640277146196	146
0	972	112.206929510759	147
0	972	112.206929510759	148
0	972	112.206929510759	148
0	972	112.206929510759	148
0	983	113.373406933687	149
0	983	113.373406933687	150
0	983	113.373406933687	150
0	983	113.373406933687	150
0	992	114.812418978262	151
0	992	114.812418978262	152
0	992	114.812418978262	152
0	992	114.812418978262	152
0	1007	116.605363929943	153
0	1007	116.605363929943	154
0	1007	116.605363929943	154
0	1007	116.605363929943	154
0	1026	117.857388902056	155
0	1026	117.857388902056	156
0	1026	117.857388902056	156
0	1026	117.857388902056	156
0	1045	119.809665651825	157
0	1045	119.809665651825	158
0	1045	119.809665651825	158
0	1045	119.809665651825	158
0	1059	121.581707394981	159
0	1059	121.581707394981	160
0	1059	121.581707394981	160
0	1059	121.581707394981	160
0	1078	123.227513906612	161
0	1078	123.227513906612	162
0	1078	123.227513906612	162
0	1078	123.227513906612	162
0	1097	124.498452388515	163
0	1097	124.498452388515	164
0	1097	124.498452388515	164
0	1097	124.498452388515	164
0	1111	125.862614407969	165
0	1111	125.862614407969	166
0	1111	125.862614407969	166
0	1111	125.862614407969	166
0	1126	127.418161923598	167
0	1126	127.418161923598	168
0	1126	127.418161923598	168
0	1126	127.418161923598	168
0	1143	129.047293835153	169
0	1143	129.047293835153	170
0	1143	129.047293835153	170
0	1143	129.047293835153	170
0	1162	130.816597572827	171
0	1162	130.816597572827	172
0	1162	130.816597572827	172
0	1162	130.816597572827	172
0	1181	131.998328760565	173
0	1181	131.998328760565	174
0	1181	131.998328760565	174
0	1181	131.998328760565	174
0	1192	133.320167952749	175
0	1192	133.320167952749	176
0	1192	133.320167952749	176
0	1192	133.320167952749	176
0	1206	134.429178316678	177
0	1206	134.429178316678	178
0	1206	134.429178316678	178
0	1206	134.429178316678	178
0	1225	135.964188018181	179
0	1225	135.964188018181	180
0	1225	135.964188018181	180
0	1225	135.964188018181	180
0	1244	136.980143321744	181
0	1244	136.980143321744	182
0	1244	136.980143321744	182
0	1244	136.980143321744	182
0	1261	138.328280093913	183
0	1261	138.328280093913	184
0	1261	138.328280093913	184
0	1261	138.328280093913	184
0	1272	139.47803466308	185
0	1272	139.47803466308	186
0	1272	139.47803466308	186
0	1272	139.47803466308	186
0	1286	141.164236469726	187
0	1286	141.164236469726	188
0	1286	141.164236469726	188
0	1286	141.164236469726	188
0	1297	142.684610309611	189
0	1297	142.684610309611	190
0	1297	142.684610309611	190
0	1297	142.684610309611	190
0	1311	144.276554989462	191
0	1311	144.276554989462	192
0	1311	144.276554989462	192
0	1311	144.276554989462	192
0	1330	146.155598737831	193
0	1330	146.155598737831	194
0	1330	146.155598737831	194
0	1330	146.155598737831	194
0	1333	147.809403661006	195
0	1333	147.809403661006	196
0	1333	147.809403661006	196
0	1333	147.809403661006	196
0	1347	149.00336439076	197
0	1347	149.00336439076	198
0	1347	149.00336439076	198
0	1347	149.00336439076	198
0	1364	150.46276299406	199
0	1364	150.46276299406	200
0	1364	150.46276299406	200
0	1364	150.46276299406	200
0	1383	151.751742319038	201
0	1383	151.751742319038	202
0	1383	151.751742319038	202
0	1383	151.751742319038	202
0	1397	153.185314033015	203
0	1397	153.185314033015	204
0	1397	153.185314033015	204
0	1397	153.185314033015	204
0	1413	154.721964734907	205
0	1413	154.721964734907	206
0	1413	154.721964734907	206
0	1413	154.721964734907	206
0	1427	156.342172804822	207
0	1427	156.342172804822	208
0	1427	156.342172804822	208
0	1427	156.342172804822	208
0	1444	157.877167068722	209
0	1444	157.877167068722	210
0	1444	157.877167068722	210
0	1444	157.877167068722	210
0	1458	159.676628484691	211
0	1458	159.676628484691	212
0	1458	159.676628484691	212
0	1458	159.676628484691	212
0	1472	160.977355395744	213
0	1472	160.977355395744	214
0	1472	160.977355395744	214
0	1472	160.977355395744	214
0	1475	162.349766084293	215
0	1475	162.349766084293	216
0	1475	162.349766084293	216
0	1475	162.349766084293	216
0	1484	163.434821527984	217
0	1484	163.434821527984	218
0	1484	163.434821527984	218
0	1484	163.434821527984	218
0	1495	164.783225250032	219
0	1495	164.783225250032	220
0	1495	164.783225250032	220
0	1495	164.783225250032	220
0	1512	166.413205317522	221
0	1512	166.413205317522	222
0	1512	166.413205317522	222
0	1512	166.413205317522	222
0	1531	167.835129356545	223
0	1531	167.835129356545	224
0	1531	167.835129356545	224
0	1531	167.835129356545	224
0	1534	169.307138983228	225
0	1534	169.307138983228	226
0	1534	169.307138983228	226
0	1534	169.307138983228	226
0	1550	170.590632516027	227
0	1550	170.590632516027	228
0	1550	170.590632516027	228
0	1550	170.590632516027	228
0	1561	172.523920695598	229
0	1561	172.523920695598	230
0	1561	172.523920695598	230
0	1561	172.523920695598	230
0	1580	174.38657114126	231
0	1580	174.38657114126	232
0	1580	174.38657114126	232
0	1580	174.38657114126	232
0	1594	176.025219265206	233
0	1594	176.025219265206	234
0	1594	176.025219265206	234
0	1594	176.025219265206	234
0	1611	177.708609373842	235
0	1611	177.708609373842	236
0	1611	177.708609373842	236
0	1611	177.708609373842	236
0	1614	178.939554046209	237
0	1614	178.939554046209	238
0	1614	178.939554046209	238
0	1614	178.939554046209	238
0	1617	180.611208967467	239
0	1617	180.611208967467	240
0	1617	180.611208967467	240
0	1617	180.611208967467	240
0	1636	181.652940100826	241
0	1636	181.652940100826	242
0	1636	181.652940100826	242
0	1636	181.652940100826	242
0	1648	183.123605804819	243
0	1648	183.123605804819	244
0	1648	183.123605804819	244
0	1648	183.123605804819	244
0	1656	184.563836593016	245
0	1656	184.563836593016	246
0	1656	184.563836593016	246
0	1656	184.563836593016	246
0	1672	186.026197152979	247
0	1672	186.026197152979	248
0	1672	186.026197152979	248
0	1672	186.026197152979	248
0	1691	187.419866090476	249
0	1691	187.419866090476	250
0	1691	187.419866090476	250
0	1691	187.419866090476	250
0	1694	188.798992080217	251
0	1694	188.798992080217	252
0	1694	188.798992080217	252
0	1694	188.798992080217	252
0	1710	190.203359173912	253
0	1710	190.203359173912	254
0	1710	190.203359173912	254
0	1710	190.203359173912	254
0	1727	191.679452969063	255
0	1727	191.679452969063	256
0	1727	191.679452969063	256
0	1727	191.679452969063	256
0	1741	192.822929577039	257
0	1741	192.822929577039	258
0	1741	192.822929577039	258
0	1741	192.822929577039	258
0	1749	194.016536440303	259
0	1749	194.016536440303	260
0	1749	194.016536440303	260
0	1749	194.016536440303	260
0	1768	195.323030097944	261
0	1768	195.323030097944	262
0	1768	195.323030097944	262
0	1768	195.323030097944	262
0	1779	196.400024274665	263
0	1779	196.400024274665	264
0	1779	196.400024274665	264
0	1779	196.400024274665	264
0	1798	197.842689086984	265
0	1798	197.842689086984	266
0	1798	197.842689086984	266
0	1798	197.842689086984	266
0	1803	199.645729899009	267
0	1803	199.645729899009	268
0	1803	199.645729899009	268
0	1803	199.645729899009	268
0	1820	201.124230915749	269
0	1820	201.124230915749	270
0	1820	201.124230915749	270
0	1820	201.124230915749	270
0	1839	202.182196922436	271
0	1839	202.182196922436	272
0	1839	202.182196922436	272
0	1839	202.182196922436	272
0	1858	203.875710459029	273
0	1858	203.875710459029	274
0	1858	203.875710459029	274
0	1858	203.875710459029	274
0	1867	205.017355595784	275
0	1867	205.017355595784	276
0	1867	205.017355595784	276
0	1867	205.017355595784	276
0	1884	206.58265863622	277
0	1884	206.58265863622	278
0	1884	206.58265863622	278
0	1884	206.58265863622	278
0	1895	207.583676172955	279
0	1895	207.583676172955	280
0	1895	207.583676172955	280
0	1895	207.583676172955	280
0	1906	209.033157516573	281
0	1906	209.033157516573	282
0	1906	209.033157516573	282
0	1906	209.033157516573	282
0	1923	210.059812058997	283
0	1923	210.059812058997	284
0	1923	210.059812058997	284
0	1923	210.059812058997	284
0	1937	211.407433119905	285
0	1937	211.407433119905	286
0	1937	211.407433119905	286
0	1937	211.407433119905	286
0	1948	213.134295585868	287
0	1948	213.134295585868	288
0	1948	213.134295585868	288
0	1948	213.134295585868	288
0	1951	214.488654278289	289
0	1951	214.488654278289	290
0	1951	214.488654278289	290
0	1951	214.488654278289	290
0	1965	215.636046059966	291
0	1965	215.636046059966	292
0	1965	215.636046059966	292
0	1965	215.636046059966	292
0	1984	217.230614442449	293
0	1984	217.230614442449	294
0	1984	217.230614442449	294
0	1984	217.230614442449	294
0	2001	219.022471776769	295
0	2001	219.022471776769	296
0	2001	219.022471776769	296
0	2001	219.022471776769	296
0	2004	220.396408262501	297
0	2004	220.396408262501	298
0	2004	220.396408262501	298
0	2004	220.396408262501	298
0	2015	222.077987846757	299
0	2015	222.077987846757	300
0	2015	222.077987846757	300
0	2015	222.077987846757	300
0	2031	223.820718877787	301
0	2031	223.820718877787	302
0	2031	223.820718877787	302
0	2031	223.820718877787	302
0	2050	225.798154553935	303
0	2050	225.798154553935	304
0	2050	225.798154553935	304
0	2050	225.798154553935	304
0	2066	227.119721988985	305
0	2066	227.119721988985	306
0	2066	227.119721988985	306
0	2066	227.119721988985	306
0	2085	228.943786802306	307
0	2085	228.943786802306	308
0	2085	228.943786802306	308
0	2085	228.943786802306	308
0	2099	230.43209599175	309
0	2099	230.43209599175	310
0	2099	230.43209599175	310
0	2099	230.43209599175	310
0	2115	231.560859099799	311
0	2115	231.560859099799	312
0	2115	231.560859099799	312
0	2115	231.560859099799	312
0	2132	233.353927626345	313
0	2132	233.353927626345	314
0	2132	233.353927626345	314
0	2132	233.353927626345	314
0	2148	235.323798262585	315
0	2148	235.323798262585	316
0	2148	235.323798262585	316
0	2148	235.323798262585	316
0	2165	236.626646479663	317
0	2165	236.626646479663	318
0	2165	236.626646479663	318
0	2165	236.626646479663	318
0	2176	238.065815939872	319
0	2176	238.065815939872	320
0	2176	238.065815939872	320
0	2176	238.065815939872	320
0	2195	239.132150451258	321
0	2195	239.132150451258	322
0	2195	239.132150451258	322
0	2195	239.132150451258	322
1	5	2.071657888316	1
1	5	2.071657888316	2
1	5	2.071657888316	3
1	20	4.013054613137	4
1	20	4.013054613137	5
1	20	4.013054613137	6
1	38	5.858717105197	7
1	38	5.858717105197	8
1	38	5.858717105197	9
1	61	7.851454973838	10
1	61	7.851454973838	11
1	61	7.851454973838	12
1	75	9.467028657979	13
1	75	9.467028657979	14
1	75	9.467028657979	15
1	89	11.048743350891	16
1	89	11.048743350891	17
1	89	11.048743350891	18
1	107	12.485652639103	19
1	107	12.485652639103	20
1	107	12.485652639103	21
1	120	14.248544795566	22
1	120	14.248544795566	23
1	120	14.248544795566	24
1	141	15.665323060638	25
1	141	15.665323060638	26
1	141	15.665323060638	27
1	156	17.387810146807	28
1	156	17.387810146807	29
1	156	17.387810146807	30
1	176	19.771382547312	31
1	176	19.771382547312	32
1	176	19.771382547312	33
1	196	22.700807327872	34
1	196	22.700807327872	35
1	196	22.700807327872	36
1	213	24.050218255664	37
1	213	24.050218255664	38
1	213	24.050218255664	39
1	228	25.454082145735	40
1	228	25.454082145735	41
1	228	25.454082145735	42
1	255	28.112795250932	43
1	255	28.112795250932	44
1	255	28.112795250932	45
1	263	29.242207989706	46
1	263	29.242207989706	47
1	263	29.242207989706	48
1	285	32.380661023415	49
1	285	32.380661023415	50
1	285	32.380661023415	51
1	304	34.187317609547	52
1	304	34.187317609547	53
1	304	34.187317609547	54
1	320	36.053893315033	55
1	320	36.053893315033	56
1	320	36.053893315033	57
1	336	38.187693190094	58
1	336	38.187693190094	59
1	336	38.187693190094	60
1	348	39.170347089859	61
1	348	39.170347089859	62
1	348	39.170347089859	63
1	361	40.144355750829	64
1	361	40.144355750829	65
1	361	40.144355750829	66
1	371	41.154124198517	67
1	371	41.154124198517	68
1	371	41.154124198517	69
1	382	42.115725235339	70
1	382	42.115725235339	71
1	382	42.115725235339	72
1	402	45.814360190516	73
1	402	45.814360190516	74
1	402	45.814360190516	75
1	419	47.232078133039	76
1	419	47.232078133039	77
1	419	47.232078133039	78
1	435	48.954804420804	79
1	435	48.954804420804	80
1	435	48.954804420804	81
1	452	51.043809597769	82
1	452	51.043809597769	83
1	452	51.043809597769	84
1	466	51.863396308145	85
1	466	51.863396308145	86
1	466	51.863396308145	87
1	488	55.244025820652	88
1	488	55.244025820652	89
1	488	55.244025820652	90
1	499	56.278032926228	91
1	499	56.278032926228	92
1	499	56.278032926228	93
1	515	57.924622596851	94
1	515	57.924622596851	95
1	515	57.924622596851	96
1	533	59.385470927548	97
1	533	59.385470927548	98
1	533	59.385470927548	99
1	557	62.59471816756	100
1	557	62.59471816756	101
1	557	62.59471816756	102
1	573	64.331292911834	103
1	573	64.331292911834	104
1	573	64.331292911834	105
1	598	70.271302693567	106
1	598	70.271302693567	107
1	598	70.271302693567	108
1	611	71.269983852181	109
1	611	71.269983852181	110
1	611	71.269983852181	111
1	629	72.998167179494	112
1	629	72.998167179494	113
1	629	72.998167179494	114
1	642	74.626392939863	115
1	642	74.626392939863	116
1	642	74.626392939863	117
1	662	77.462365440197	118
1	662	77.462365440197	119
1	662	77.462365440197	120
1	675	79.071560176778	121
1	675	79.071560176778	122
1	675	79.071560176778	123
1	689	80.721306215131	124
1	689	80.721306215131	125
1	689	80.721306215131	126
1	707	82.738406919988	127
1	707	82.738406919988	128
1	707	82.738406919988	129
1	720	84.670225406975	130
1	720	84.670225406975	131
1	720	84.670225406975	132
1	756	89.385883949408	133
1	756	89.385883949408	134
1	756	89.385883949408	135
1	767	90.595125202375	136
1	767	90.595125202375	137
1	767	90.595125202375	138
1	794	94.601052866524	139
1	794	94.601052866524	140
1	794	94.601052866524	141
1	808	96.188443585405	142
1	808	96.188443585405	143
1	808	96.188443585405	144
1	828	97.403514487766	145
1	828	97.403514487766	146
1	828	97.403514487766	147
1	847	98.904501427796	148
1	847	98.904501427796	149
1	847	98.904501427796	150
1	860	100.291069864835	151
1	860	100.291069864835	152
1	860	100.291069864835	153
1	878	102.074953643262	154
1	878	102.074953643262	155
1	878	102.074953643262	156
1	900	103.605361088128	157
1	900	103.605361088128	158
1	900	103.605361088128	159
1	910	105.4105587698	160
1	910	105.4105587698	161
1	910	105.4105587698	162
1	927	106.625354140025	163
1	927	106.625354140025	164
1	927	106.625354140025	165
1	959	110.829071718121	166
1	959	110.829071718121	167
1	959	110.829071718121	168
1	973	112.267856941341	169
1	973	112.267856941341	170
1	973	112.267856941341	171
1	984	113.434351303462	172
1	984	113.434351303462	173
1	984	113.434351303462	174
1	993	114.973595737672	175
1	993	114.973595737672	176
1	993	114.973595737672	177
1	1008	116.736003842585	178
1	1008	116.736003842585	179
1	1008	116.736003842585	180
1	1028	118.006376654148	181
1	1028	118.006376654148	182
1	1028	118.006376654148	183
1	1046	119.867990982424	184
1	1046	119.867990982424	185
1	1046	119.867990982424	186
1	1060	121.637691756197	187
1	1060	121.637691756197	188
1	1060	121.637691756197	189
1	1079	123.252042240688	190
1	1079	123.252042240688	191
1	1079	123.252042240688	192
1	1112	125.903518929315	193
1	1112	125.903518929315	194
1	1112	125.903518929315	195
1	1128	127.574841733499	196
1	1128	127.574841733499	197
1	1128	127.574841733499	198
1	1145	129.105239455536	199
1	1145	129.105239455536	200
1	1145	129.105239455536	201
1	1164	131.011642531747	202
1	1164	131.011642531747	203
1	1164	131.011642531747	204
1	1183	132.16084964387	205
1	1183	132.16084964387	206
1	1183	132.16084964387	207
1	1198	133.676851186965	208
1	1198	133.676851186965	209
1	1198	133.676851186965	210
1	1216	134.885895858746	211
1	1216	134.885895858746	212
1	1216	134.885895858746	213
1	1237	136.640737514212	214
1	1237	136.640737514212	215
1	1237	136.640737514212	216
1	1247	137.112377242919	217
1	1247	137.112377242919	218
1	1247	137.112377242919	219
1	1263	138.450568915832	220
1	1263	138.450568915832	221
1	1263	138.450568915832	222
1	1273	139.532377672401	223
1	1273	139.532377672401	224
1	1273	139.532377672401	225
1	1288	141.361796625241	226
1	1288	141.361796625241	227
1	1288	141.361796625241	228
1	1298	142.767220929494	229
1	1298	142.767220929494	230
1	1298	142.767220929494	231
1	1312	144.303103995825	232
1	1312	144.303103995825	233
1	1312	144.303103995825	234
1	1340	148.192959631728	235
1	1340	148.192959631728	236
1	1340	148.192959631728	237
1	1350	149.178484375152	238
1	1350	149.178484375152	239
1	1350	149.178484375152	240
1	1366	150.60755879745	241
1	1366	150.60755879745	242
1	1366	150.60755879745	243
1	1388	151.925223492788	244
1	1388	151.925223492788	245
1	1388	151.925223492788	246
1	1399	153.359804489484	247
1	1399	153.359804489484	248
1	1399	153.359804489484	249
1	1414	154.847228090523	250
1	1414	154.847228090523	251
1	1414	154.847228090523	252
1	1428	156.374418199836	253
1	1428	156.374418199836	254
1	1428	156.374418199836	255
1	1446	157.967246661535	256
1	1446	157.967246661535	257
1	1446	157.967246661535	258
1	1464	159.942745779307	259
1	1464	159.942745779307	260
1	1464	159.942745779307	261
1	1477	162.556498488693	262
1	1477	162.556498488693	263
1	1477	162.556498488693	264
1	1489	163.69626153699	265
1	1489	163.69626153699	266
1	1489	163.69626153699	267
1	1496	164.833979520786	268
1	1496	164.833979520786	269
1	1496	164.833979520786	270
1	1513	166.506596086207	271
1	1513	166.506596086207	272
1	1513	166.506596086207	273
1	1537	169.443563630195	274
1	1537	169.443563630195	275
1	1537	169.443563630195	276
1	1551	170.654244987201	277
1	1551	170.654244987201	278
1	1551	170.654244987201	279
1	1567	172.839737802104	280
1	1567	172.839737802104	281
1	1567	172.839737802104	282
1	1586	174.643239655303	283
1	1586	174.643239655303	284
1	1586	174.643239655303	285
1	1596	176.180918789031	286
1	1596	176.180918789031	287
1	1596	176.180918789031	288
1	1619	180.702219673319	289
1	1619	180.702219673319	290
1	1619	180.702219673319	291
1	1638	181.861891724026	292
1	1638	181.861891724026	293
1	1638	181.861891724026	294
1	1658	184.754267575383	295
1	1658	184.754267575383	296
1	1658	184.754267575383	297
1	1678	186.4655529404	298
1	1678	186.4655529404	299
1	1678	186.4655529404	300
1	1701	189.282010009658	301
1	1701	189.282010009658	302
1	1701	189.282010009658	303
1	1719	190.565143853941	304
1	1719	190.565143853941	305
1	1719	190.565143853941	306
1	1733	191.905546514617	307
1	1733	191.905546514617	308
1	1733	191.905546514617	309
1	1751	194.191895197899	310
1	1751	194.191895197899	311
1	1751	194.191895197899	312
1	1771	195.491447603023	313
1	1771	195.491447603023	314
1	1771	195.491447603023	315
1	1781	196.569471834079	316
1	1781	196.569471834079	317
1	1781	196.569471834079	318
1	1804	199.673409652333	319
1	1804	199.673409652333	320
1	1804	199.673409652333	321
1	1821	201.14800861436	322
1	1821	201.14800861436	323
1	1821	201.14800861436	324
1	1843	202.439220228813	325
1	1843	202.439220228813	326
1	1843	202.439220228813	327
1	1859	203.971569952433	328
1	1859	203.971569952433	329
1	1859	203.971569952433	330
1	1868	205.069752145702	331
1	1868	205.069752145702	332
1	1868	205.069752145702	333
1	1885	206.693833026499	334
1	1885	206.693833026499	335
1	1885	206.693833026499	336
1	1896	207.731479842755	337
1	1896	207.731479842755	338
1	1896	207.731479842755	339
1	1907	209.140740519324	340
1	1907	209.140740519324	341
1	1907	209.140740519324	342
1	1926	210.265934678283	343
1	1926	210.265934678283	344
1	1926	210.265934678283	345
1	1939	211.561749096946	346
1	1939	211.561749096946	347
1	1939	211.561749096946	348
1	1958	214.826736294424	349
1	1958	214.826736294424	350
1	1958	214.826736294424	351
1	1966	215.692118658031	352
1	1966	215.692118658031	353
1	1966	215.692118658031	354
1	1996	217.960779225821	355
1	1996	217.960779225821	356
1	1996	217.960779225821	357
1	2006	220.563163110706	358
1	2006	220.563163110706	359
1	2006	220.563163110706	360
1	2017	222.224918396693	361
1	2017	222.224918396693	362
1	2017	222.224918396693	363
1	2035	223.968925050766	364
1	2035	223.968925050766	365
1	2035	223.968925050766	366
1	2052	225.922481383617	367
1	2052	225.922481383617	368
1	2052	225.922481383617	369
1	2067	227.152954463855	370
1	2067	227.152954463855	371
1	2067	227.152954463855	372
1	2086	229.066826000677	373
1	2086	229.066826000677	374
1	2086	229.066826000677	375
1	2101	230.618689059424	376
1	2101	230.618689059424	377
1	2101	230.618689059424	378
1	2120	232.072752730563	379
1	2120	232.072752730563	380
1	2120	232.072752730563	381
1	2137	233.52557716434	382
1	2137	233.52557716434	383
1	2137	233.52557716434	384
1	2150	235.437933192235	385
1	2150	235.437933192235	386
1	2150	235.437933192235	387
1	2168	236.825904168842	388
1	2168	236.825904168842	389
1	2168	236.825904168842	390
1	2177	238.141714003597	391
1	2177	238.141714003597	392
1	2177	238.141714003597	393
1	2196	239.295832016595	394
1	2196	239.295832016595	395
1	2196	239.295832016595	396
2	5	2.071657888316	1
2	11	2.141195578745	2
2	20	4.013054613137	3
2	27	4.244456758696	4
2	38	5.858717105197	5
2	44	6.044653194434	6
2	46	6.085449357507	7
2	61	7.851454973838	8
2	68	8.070544677805	9
2	75	9.467028657979	10
2	87	9.869611588061	11
2	89	11.048743350891	12
2	95	11.235927833685	13
2	98	11.276882522905	14
2	107	12.485652639103	15
2	120	14.248544795566	16
2	124	14.325108631068	17
2	129	14.506340215948	18
2	141	15.665323060638	19
2	150	15.859808434093	20
2	156	17.387810146807	21
2	163	17.526884352784	22
2	176	19.771382547312	23
2	183	19.939670741062	24