version 3
run General-1-20231019-19:13:55-57309
attr configname General
attr datetime 20231019-19:13:55
attr datetimef 20231019-191355
attr experiment General
attr inifile omnetpp.ini
attr iterationvars ""
attr iterationvarsd ""
attr iterationvarsf ""
attr measurement ""
attr network Reliability
attr processid 57309
attr repetition 1
attr replication #1
attr resultdir results
attr runnumber 1
attr seedset 1
config network Reliability
config Reliability.node[*].transmissionTime "uniform(1s, 2s)"
config Reliability.node[*].delayTime "uniform(0.01s, 0.2s)"
config Reliability.node[0].lossProbability 0.3
config Reliability.node[1].lossProbability 0.3
config Reliability.node[2].lossProbability 0.3
config Reliability.node[3].lossProbability 0.3/2
config Reliability.node[4].lossProbability 0.3/2
config Reliability.node[5].lossProbability 0.3*2
config Reliability.node[6].lossProbability 0.3*2
config Reliability.node[7].lossProbability 0.3*3
config record-eventlog true
config sim-time-limit 240s
config repeat 5

vector 0 Reliability.node[0] txVector ETV
vector 1 Reliability.node[2] txVector ETV
vector 2 Reliability.node[2] rxVector ETV
vector 3 Reliability.node[1] txVector ETV
vector 4 Reliability.node[1] rxVector ETV
vector 5 Reliability.node[4] txVector ETV
vector 6 Reliability.node[4] rxVector ETV
vector 7 Reliability.node[0] rxVector ETV
vector 8 Reliability.node[3] txVector ETV
vector 9 Reliability.node[3] rxVector ETV
vector 10 Reliability.node[6] txVector ETV
vector 11 Reliability.node[6] rxVector ETV
vector 12 Reliability.node[7] rxVector ETV
vector 13 Reliability.node[7] e2eVector ETV
vector 14 Reliability.node[5] txVector ETV
vector 15 Reliability.node[5] rxVector ETV
0	1	0.089234179703	1
0	1	0.089234179703	2
0	1	0.089234179703	2
0	1	0.089234179703	2
0	4	2.021791540903	3
0	4	2.021791540903	4
0	4	2.021791540903	4
0	4	2.021791540903	4
0	7	3.168547433454	5
0	7	3.168547433454	6
0	7	3.168547433454	6
0	7	3.168547433454	6
0	21	4.556458173671	7
0	21	4.556458173671	8
0	21	4.556458173671	8
0	21	4.556458173671	8
0	38	6.357202740039	9
0	38	6.357202740039	10
0	38	6.357202740039	10
0	38	6.357202740039	10
0	53	8.140517212569	11
0	53	8.140517212569	12
0	53	8.140517212569	12
0	53	8.140517212569	12
0	70	9.819352743102	13
0	70	9.819352743102	14
0	70	9.819352743102	14
0	70	9.819352743102	14
0	84	11.611756322326	15
0	84	11.611756322326	16
0	84	11.611756322326	16
0	84	11.611756322326	16
0	98	13.235428528514	17
0	98	13.235428528514	18
0	98	13.235428528514	18
0	98	13.235428528514	18
0	113	14.615231818639	19
0	113	14.615231818639	20
0	113	14.615231818639	20
0	113	14.615231818639	20
0	116	16.612554670198	21
0	116	16.612554670198	22
0	116	16.612554670198	22
0	116	16.612554670198	22
0	130	18.355319497295	23
0	130	18.355319497295	24
0	130	18.355319497295	24
0	130	18.355319497295	24
0	141	19.894150563402	25
0	141	19.894150563402	26
0	141	19.894150563402	26
0	141	19.894150563402	26
0	152	21.611542165398	27
0	152	21.611542165398	28
0	152	21.611542165398	28
0	152	21.611542165398	28
0	169	22.83725150407	29
0	169	22.83725150407	30
0	169	22.83725150407	30
0	169	22.83725150407	30
0	188	24.81900813908	31
0	188	24.81900813908	32
0	188	24.81900813908	32
0	188	24.81900813908	32
0	205	26.029182151311	33
0	205	26.029182151311	34
0	205	26.029182151311	34
0	205	26.029182151311	34
0	224	27.757739547991	35
0	224	27.757739547991	36
0	224	27.757739547991	36
0	224	27.757739547991	36
0	240	28.779264356128	37
0	240	28.779264356128	38
0	240	28.779264356128	38
0	240	28.779264356128	38
0	259	30.125552867425	39
0	259	30.125552867425	40
0	259	30.125552867425	40
0	259	30.125552867425	40
0	276	31.125954890509	41
0	276	31.125954890509	42
0	276	31.125954890509	42
0	276	31.125954890509	42
0	290	32.593332195307	43
0	290	32.593332195307	44
0	290	32.593332195307	44
0	290	32.593332195307	44
0	307	34.47333048226	45
0	307	34.47333048226	46
0	307	34.47333048226	46
0	307	34.47333048226	46
0	310	36.179012625131	47
0	310	36.179012625131	48
0	310	36.179012625131	48
0	310	36.179012625131	48
0	327	37.360625481351	49
0	327	37.360625481351	50
0	327	37.360625481351	50
0	327	37.360625481351	50
0	344	38.69390978676	51
0	344	38.69390978676	52
0	344	38.69390978676	52
0	344	38.69390978676	52
0	353	39.9159589262	53
0	353	39.9159589262	54
0	353	39.9159589262	54
0	353	39.9159589262	54
0	372	41.540589406273	55
0	372	41.540589406273	56
0	372	41.540589406273	56
0	372	41.540589406273	56
0	391	43.531061187272	57
0	391	43.531061187272	58
0	391	43.531061187272	58
0	391	43.531061187272	58
0	405	45.011124113926	59
0	405	45.011124113926	60
0	405	45.011124113926	60
0	405	45.011124113926	60
0	422	46.809728357827	61
0	422	46.809728357827	62
0	422	46.809728357827	62
0	422	46.809728357827	62
0	441	48.504135210186	63
0	441	48.504135210186	64
0	441	48.504135210186	64
0	441	48.504135210186	64
0	460	49.531918552357	65
0	460	49.531918552357	66
0	460	49.531918552357	66
0	460	49.531918552357	66
0	477	51.308133178509	67
0	477	51.308133178509	68
0	477	51.308133178509	68
0	477	51.308133178509	68
0	496	53.120743760725	69
0	496	53.120743760725	70
0	496	53.120743760725	70
0	496	53.120743760725	70
0	513	54.426542000731	71
0	513	54.426542000731	72
0	513	54.426542000731	72
0	513	54.426542000731	72
0	532	56.363410379856	73
0	532	56.363410379856	74
0	532	56.363410379856	74
0	532	56.363410379856	74
0	551	57.502125000001	75
0	551	57.502125000001	76
0	551	57.502125000001	76
0	551	57.502125000001	76
0	560	59.269599874389	77
0	560	59.269599874389	78
0	560	59.269599874389	78
0	560	59.269599874389	78
0	566	60.854882083718	79
0	566	60.854882083718	80
0	566	60.854882083718	80
0	566	60.854882083718	80
0	582	62.17483491439	81
0	582	62.17483491439	82
0	582	62.17483491439	82
0	582	62.17483491439	82
0	599	63.625593814883	83
0	599	63.625593814883	84
0	599	63.625593814883	84
0	599	63.625593814883	84
0	618	64.978023443488	85
0	618	64.978023443488	86
0	618	64.978023443488	86
0	618	64.978023443488	86
0	621	66.711966434843	87
0	621	66.711966434843	88
0	621	66.711966434843	88
0	621	66.711966434843	88
0	638	68.386530460208	89
0	638	68.386530460208	90
0	638	68.386530460208	90
0	638	68.386530460208	90
0	657	69.793661101605	91
0	657	69.793661101605	92
0	657	69.793661101605	92
0	657	69.793661101605	92
0	665	70.84980214166	93
0	665	70.84980214166	94
0	665	70.84980214166	94
0	665	70.84980214166	94
0	684	72.570773496409	95
0	684	72.570773496409	96
0	684	72.570773496409	96
0	684	72.570773496409	96
0	703	74.31085104018	97
0	703	74.31085104018	98
0	703	74.31085104018	98
0	703	74.31085104018	98
0	719	75.539705646807	99
0	719	75.539705646807	100
0	719	75.539705646807	100
0	719	75.539705646807	100
0	733	76.759989634273	101
0	733	76.759989634273	102
0	733	76.759989634273	102
0	733	76.759989634273	102
0	747	78.110443849699	103
0	747	78.110443849699	104
0	747	78.110443849699	104
0	747	78.110443849699	104
0	764	79.71592284937	105
0	764	79.71592284937	106
0	764	79.71592284937	106
0	764	79.71592284937	106
0	769	80.89603931096	107
0	769	80.89603931096	108
0	769	80.89603931096	108
0	769	80.89603931096	108
0	780	82.842191702105	109
0	780	82.842191702105	110
0	780	82.842191702105	110
0	780	82.842191702105	110
0	794	84.170059029829	111
0	794	84.170059029829	112
0	794	84.170059029829	112
0	794	84.170059029829	112
0	806	85.734557350051	113
0	806	85.734557350051	114
0	806	85.734557350051	114
0	806	85.734557350051	114
0	822	87.652062210838	115
0	822	87.652062210838	116
0	822	87.652062210838	116
0	822	87.652062210838	116
0	841	88.920712337947	117
0	841	88.920712337947	118
0	841	88.920712337947	118
0	841	88.920712337947	118
0	857	90.214864883923	119
0	857	90.214864883923	120
0	857	90.214864883923	120
0	857	90.214864883923	120
0	876	91.84651151125	121
0	876	91.84651151125	122
0	876	91.84651151125	122
0	876	91.84651151125	122
0	890	92.854489399937	123
0	890	92.854489399937	124
0	890	92.854489399937	124
0	890	92.854489399937	124
0	904	94.420151510627	125
0	904	94.420151510627	126
0	904	94.420151510627	126
0	904	94.420151510627	126
0	921	95.52155803668	127
0	921	95.52155803668	128
0	921	95.52155803668	128
0	921	95.52155803668	128
0	937	96.750763069723	129
0	937	96.750763069723	130
0	937	96.750763069723	130
0	937	96.750763069723	130
0	954	98.597275644193	131
0	954	98.597275644193	132
0	954	98.597275644193	132
0	954	98.597275644193	132
0	973	99.73949689686	133
0	973	99.73949689686	134
0	973	99.73949689686	134
0	973	99.73949689686	134
0	987	101.719074107825	135
0	987	101.719074107825	136
0	987	101.719074107825	136
0	987	101.719074107825	136
0	1003	102.73564999283	137
0	1003	102.73564999283	138
0	1003	102.73564999283	138
0	1003	102.73564999283	138
0	1017	104.52896280226	139
0	1017	104.52896280226	140
0	1017	104.52896280226	140
0	1017	104.52896280226	140
0	1031	105.765831506929	141
0	1031	105.765831506929	142
0	1031	105.765831506929	142
0	1031	105.765831506929	142
0	1047	107.193044144545	143
0	1047	107.193044144545	144
0	1047	107.193044144545	144
0	1047	107.193044144545	144
0	1066	108.960833120976	145
0	1066	108.960833120976	146
0	1066	108.960833120976	146
0	1066	108.960833120976	146
0	1080	110.403534374783	147
0	1080	110.403534374783	148
0	1080	110.403534374783	148
0	1080	110.403534374783	148
0	1097	112.347426995985	149
0	1097	112.347426995985	150
0	1097	112.347426995985	150
0	1097	112.347426995985	150
0	1114	114.041586553562	151
0	1114	114.041586553562	152
0	1114	114.041586553562	152
0	1114	114.041586553562	152
0	1125	115.568854013109	153
0	1125	115.568854013109	154
0	1125	115.568854013109	154
0	1125	115.568854013109	154
0	1141	116.949811234489	155
0	1141	116.949811234489	156
0	1141	116.949811234489	156
0	1141	116.949811234489	156
0	1155	118.278067341424	157
0	1155	118.278067341424	158
0	1155	118.278067341424	158
0	1155	118.278067341424	158
0	1170	119.512423245819	159
0	1170	119.512423245819	160
0	1170	119.512423245819	160
0	1170	119.512423245819	160
0	1189	120.884077821742	161
0	1189	120.884077821742	162
0	1189	120.884077821742	162
0	1189	120.884077821742	162
0	1203	122.876645876677	163
0	1203	122.876645876677	164
0	1203	122.876645876677	164
0	1203	122.876645876677	164
0	1220	124.250053004711	165
0	1220	124.250053004711	166
0	1220	124.250053004711	166
0	1220	124.250053004711	166
0	1236	126.033293695306	167
0	1236	126.033293695306	168
0	1236	126.033293695306	168
0	1236	126.033293695306	168
0	1253	127.7004124854	169
0	1253	127.7004124854	170
0	1253	127.7004124854	170
0	1253	127.7004124854	170
0	1270	128.813190516202	171
0	1270	128.813190516202	172
0	1270	128.813190516202	172
0	1270	128.813190516202	172
0	1284	129.835462025019	173
0	1284	129.835462025019	174
0	1284	129.835462025019	174
0	1284	129.835462025019	174
0	1301	131.256868456143	175
0	1301	131.256868456143	176
0	1301	131.256868456143	176
0	1301	131.256868456143	176
0	1318	132.974463421737	177
0	1318	132.974463421737	178
0	1318	132.974463421737	178
0	1318	132.974463421737	178
0	1334	134.17387475155	179
0	1334	134.17387475155	180
0	1334	134.17387475155	180
0	1334	134.17387475155	180
0	1351	136.156464541915	181
0	1351	136.156464541915	182
0	1351	136.156464541915	182
0	1351	136.156464541915	182
0	1362	138.108811071261	183
0	1362	138.108811071261	184
0	1362	138.108811071261	184
0	1362	138.108811071261	184
0	1376	139.707631965752	185
0	1376	139.707631965752	186
0	1376	139.707631965752	186
0	1376	139.707631965752	186
0	1390	141.682971208941	187
0	1390	141.682971208941	188
0	1390	141.682971208941	188
0	1390	141.682971208941	188
0	1407	143.296083545198	189
0	1407	143.296083545198	190
0	1407	143.296083545198	190
0	1407	143.296083545198	190
0	1426	145.069172305872	191
0	1426	145.069172305872	192
0	1426	145.069172305872	192
0	1426	145.069172305872	192
0	1445	146.556729478182	193
0	1445	146.556729478182	194
0	1445	146.556729478182	194
0	1445	146.556729478182	194
0	1464	148.03817852482	195
0	1464	148.03817852482	196
0	1464	148.03817852482	196
0	1464	148.03817852482	196
0	1478	149.995573446972	197
0	1478	149.995573446972	198
0	1478	149.995573446972	198
0	1478	149.995573446972	198
0	1497	151.932775627475	199
0	1497	151.932775627475	200
0	1497	151.932775627475	200
0	1497	151.932775627475	200
0	1516	153.277891535431	201
0	1516	153.277891535431	202
0	1516	153.277891535431	202
0	1516	153.277891535431	202
0	1530	155.169727477131	203
0	1530	155.169727477131	204
0	1530	155.169727477131	204
0	1530	155.169727477131	204
0	1533	156.456771423228	205
0	1533	156.456771423228	206
0	1533	156.456771423228	206
0	1533	156.456771423228	206
0	1547	157.657854147607	207
0	1547	157.657854147607	208
0	1547	157.657854147607	208
0	1547	157.657854147607	208
0	1566	159.621771915935	209
0	1566	159.621771915935	210
0	1566	159.621771915935	210
0	1566	159.621771915935	210
0	1585	160.767951747522	211
0	1585	160.767951747522	212
0	1585	160.767951747522	212
0	1585	160.767951747522	212
0	1588	162.548154085296	213
0	1588	162.548154085296	214
0	1588	162.548154085296	214
0	1588	162.548154085296	214
0	1591	164.513962844041	215
0	1591	164.513962844041	216
0	1591	164.513962844041	216
0	1591	164.513962844041	216
0	1602	165.601901527847	217
0	1602	165.601901527847	218
0	1602	165.601901527847	218
0	1602	165.601901527847	218
0	1619	166.969158539436	219
0	1619	166.969158539436	220
0	1619	166.969158539436	220
0	1619	166.969158539436	220
0	1630	168.14765337075	221
0	1630	168.14765337075	222
0	1630	168.14765337075	222
0	1630	168.14765337075	222
0	1649	169.322475143595	223
0	1649	169.322475143595	224
0	1649	169.322475143595	224
0	1649	169.322475143595	224
0	1668	170.928371509424	225
0	1668	170.928371509424	226
0	1668	170.928371509424	226
0	1668	170.928371509424	226
0	1687	172.657079229717	227
0	1687	172.657079229717	228
0	1687	172.657079229717	228
0	1687	172.657079229717	228
0	1698	173.893548884782	229
0	1698	173.893548884782	230
0	1698	173.893548884782	230
0	1698	173.893548884782	230
0	1712	175.727062651076	231
0	1712	175.727062651076	232
0	1712	175.727062651076	232
0	1712	175.727062651076	232
0	1729	176.793633454133	233
0	1729	176.793633454133	234
0	1729	176.793633454133	234
0	1729	176.793633454133	234
0	1732	178.619509834683	235
0	1732	178.619509834683	236
0	1732	178.619509834683	236
0	1732	178.619509834683	236
0	1744	180.330249409777	237
0	1744	180.330249409777	238
0	1744	180.330249409777	238
0	1744	180.330249409777	238
0	1763	181.495504164955	239
0	1763	181.495504164955	240
0	1763	181.495504164955	240
0	1763	181.495504164955	240
0	1782	182.528148028886	241
0	1782	182.528148028886	242
0	1782	182.528148028886	242
0	1782	182.528148028886	242
0	1801	184.015592426181	243
0	1801	184.015592426181	244
0	1801	184.015592426181	244
0	1801	184.015592426181	244
0	1818	185.480480054047	245
0	1818	185.480480054047	246
0	1818	185.480480054047	246
0	1818	185.480480054047	246
0	1835	186.820305842327	247
0	1835	186.820305842327	248
0	1835	186.820305842327	248
0	1835	186.820305842327	248
0	1852	188.75902501785	249
0	1852	188.75902501785	250
0	1852	188.75902501785	250
0	1852	188.75902501785	250
0	1871	189.789748984508	251
0	1871	189.789748984508	252
0	1871	189.789748984508	252
0	1871	189.789748984508	252
0	1887	191.085684034627	253
0	1887	191.085684034627	254
0	1887	191.085684034627	254
0	1887	191.085684034627	254
0	1906	192.98799494922	255
0	1906	192.98799494922	256
0	1906	192.98799494922	256
0	1906	192.98799494922	256
0	1920	194.795507218343	257
0	1920	194.795507218343	258
0	1920	194.795507218343	258
0	1920	194.795507218343	258
0	1923	195.951407732562	259
0	1923	195.951407732562	260
0	1923	195.951407732562	260
0	1923	195.951407732562	260
0	1931	196.995562526285	261
0	1931	196.995562526285	262
0	1931	196.995562526285	262
0	1931	196.995562526285	262
0	1934	198.827640258828	263
0	1934	198.827640258828	264
0	1934	198.827640258828	264
0	1934	198.827640258828	264
0	1951	200.318648792459	265
0	1951	200.318648792459	266
0	1951	200.318648792459	266
0	1951	200.318648792459	266
0	1962	202.229978980851	267
0	1962	202.229978980851	268
0	1962	202.229978980851	268
0	1962	202.229978980851	268
0	1976	203.311195563414	269
0	1976	203.311195563414	270
0	1976	203.311195563414	270
0	1976	203.311195563414	270
0	1987	204.88403752179	271
0	1987	204.88403752179	272
0	1987	204.88403752179	272
0	1987	204.88403752179	272
0	2004	206.825923763571	273
0	2004	206.825923763571	274
0	2004	206.825923763571	274
0	2004	206.825923763571	274
0	2020	208.253452586133	275
0	2020	208.253452586133	276
0	2020	208.253452586133	276
0	2020	208.253452586133	276
0	2037	210.080221322022	277
0	2037	210.080221322022	278
0	2037	210.080221322022	278
0	2037	210.080221322022	278
0	2053	211.90591803508	279
0	2053	211.90591803508	280
0	2053	211.90591803508	280
0	2053	211.90591803508	280
0	2056	213.297983909847	281
0	2056	213.297983909847	282
0	2056	213.297983909847	282
0	2056	213.297983909847	282
0	2061	214.81835568499	283
0	2061	214.81835568499	284
0	2061	214.81835568499	284
0	2061	214.81835568499	284
0	2080	216.266254597234	285
0	2080	216.266254597234	286
0	2080	216.266254597234	286
0	2080	216.266254597234	286
0	2096	217.422976859503	287
0	2096	217.422976859503	288
0	2096	217.422976859503	288
0	2096	217.422976859503	288
0	2112	218.954560328864	289
0	2112	218.954560328864	290
0	2112	218.954560328864	290
0	2112	218.954560328864	290
0	2128	220.399609828258	291
0	2128	220.399609828258	292
0	2128	220.399609828258	292
0	2128	220.399609828258	292
0	2142	221.939100719413	293
0	2142	221.939100719413	294
0	2142	221.939100719413	294
0	2142	221.939100719413	294
0	2159	223.661910087226	295
0	2159	223.661910087226	296
0	2159	223.661910087226	296
0	2159	223.661910087226	296
0	2175	224.888005289139	297
0	2175	224.888005289139	298
0	2175	224.888005289139	298
0	2175	224.888005289139	298
0	2192	226.584642463021	299
0	2192	226.584642463021	300
0	2192	226.584642463021	300
0	2192	226.584642463021	300
0	2209	228.06608835946	301
0	2209	228.06608835946	302
0	2209	228.06608835946	302
0	2209	228.06608835946	302
0	2223	229.291981557972	303
0	2223	229.291981557972	304
0	2223	229.291981557972	304
0	2223	229.291981557972	304
0	2237	230.612188212463	305
0	2237	230.612188212463	306
0	2237	230.612188212463	306
0	2237	230.612188212463	306
0	2254	232.162279250921	307
0	2254	232.162279250921	308
0	2254	232.162279250921	308
0	2254	232.162279250921	308
0	2271	233.346457024227	309
0	2271	233.346457024227	310
0	2271	233.346457024227	310
0	2271	233.346457024227	310
0	2288	235.161768017924	311
0	2288	235.161768017924	312
0	2288	235.161768017924	312
0	2288	235.161768017924	312
0	2305	236.867348427307	313
0	2305	236.867348427307	314
0	2305	236.867348427307	314
0	2305	236.867348427307	314
0	2308	238.179531547828	315
0	2308	238.179531547828	316
0	2308	238.179531547828	316
0	2308	238.179531547828	316
1	8	3.223936873597	1
1	8	3.223936873597	2
1	24	4.724352128415	3
1	24	4.724352128415	4
1	58	8.264789683048	5
1	58	8.264789683048	6
1	73	9.937181673537	7
1	73	9.937181673537	8
1	85	11.762895194355	9
1	85	11.762895194355	10
1	117	16.658610462682	11
1	117	16.658610462682	12
1	142	19.958415675345	13
1	142	19.958415675345	14
1	166	22.038775365904	15
1	166	22.038775365904	16
1	172	22.97504308935	17
1	172	22.97504308935	18
1	201	25.18480806704	19
1	201	25.18480806704	20
1	206	26.093710947704	21
1	206	26.093710947704	22
1	225	27.780154954588	23
1	225	27.780154954588	24
1	242	28.903070251213	25
1	242	28.903070251213	26
1	260	30.255164620571	27
1	260	30.255164620571	28
1	279	31.273404760805	29
1	279	31.273404760805	30
1	291	32.619403876939	31
1	291	32.619403876939	32
1	316	36.565104366796	33
1	316	36.565104366796	34
1	340	37.705929315164	35
1	340	37.705929315164	36
1	357	40.100614497717	37
1	357	40.100614497717	38
1	373	41.569265028005	39
1	373	41.569265028005	40
1	392	43.682669954157	41
1	392	43.682669954157	42
1	410	45.168870336918	43
1	410	45.168870336918	44
1	429	47.10694939005	45
1	429	47.10694939005	46
1	443	48.592728529622	47
1	443	48.592728529622	48
1	469	49.878247038447	49
1	469	49.878247038447	50
1	482	51.497114380693	51
1	482	51.497114380693	52
1	498	53.239933498376	53
1	498	53.239933498376	54
1	514	54.61497690266	55
1	514	54.61497690266	56
1	535	56.509589866548	57
1	535	56.509589866548	58
1	567	60.934354865187	59
1	567	60.934354865187	60
1	591	62.652234467429	61
1	591	62.652234467429	62
1	606	63.94140745863	63
1	606	63.94140745863	64
1	625	66.852365354027	65
1	625	66.852365354027	66
1	644	68.6980501454	67
1	644	68.6980501454	68
1	658	69.877885544142	69
1	658	69.877885544142	70
1	666	70.940131434728	71
1	666	70.940131434728	72
1	686	72.701752463116	73
1	686	72.701752463116	74
1	705	74.493851489895	75
1	705	74.493851489895	76
1	720	75.577744639768	77
1	720	75.577744639768	78
1	734	76.845672410818	79
1	734	76.845672410818	80
1	748	78.160925053116	81
1	748	78.160925053116	82
1	766	79.895138663187	83
1	766	79.895138663187	84
1	782	83.032425996257	85
1	782	83.032425996257	86
1	815	86.23252540168	87
1	815	86.23252540168	88
1	833	88.024919767445	89
1	833	88.024919767445	90
1	852	89.354035480916	91
1	852	89.354035480916	92
1	859	90.279742767387	93
1	859	90.279742767387	94
1	878	91.981844449585	95
1	878	91.981844449585	96
1	891	92.976896619831	97
1	891	92.976896619831	98
1	905	94.460578197976	99
1	905	94.460578197976	100
1	927	95.790403825374	101
1	927	95.790403825374	102
1	946	97.016668780897	103
1	946	97.016668780897	104
1	957	98.757685467297	105
1	957	98.757685467297	106
1	984	100.227562385846	107
1	984	100.227562385846	108
1	990	101.81973959112	109
1	990	101.81973959112	110
1	1005	102.848667335121	111
1	1005	102.848667335121	112
1	1026	104.930385534609	113
1	1026	104.930385534609	114
1	1032	105.845055061177	115
1	1032	105.845055061177	116
1	1049	107.336190775015	117
1	1049	107.336190775015	118
1	1074	109.140880820506	119
1	1074	109.140880820506	120
1	1082	110.605637454892	121
1	1082	110.605637454892	122
1	1099	112.522204639796	123
1	1099	112.522204639796	124
1	1121	114.391714449789	125
1	1121	114.391714449789	126
1	1136	116.096490885981	127
1	1136	116.096490885981	128
1	1176	119.707868559154	129
1	1176	119.707868559154	130
1	1190	120.932764160058	131
1	1190	120.932764160058	132
1	1206	123.078634845279	133
1	1206	123.078634845279	134
1	1229	124.765565795507	135
1	1229	124.765565795507	136
1	1247	126.438535684913	137
1	1247	126.438535684913	138
1	1271	128.954159093023	139
1	1271	128.954159093023	140
1	1293	130.167704909129	141
1	1293	130.167704909129	142
1	1302	131.314806733711	143
1	1302	131.314806733711	144
1	1319	133.075934502363	145
1	1319	133.075934502363	146
1	1346	134.588454002206	147
1	1346	134.588454002206	148
1	1352	136.32668556988	149
1	1352	136.32668556988	150
1	1363	138.182722343651	151
1	1363	138.182722343651	152
1	1377	139.767678444518	153
1	1377	139.767678444518	154
1	1392	141.798209015858	155
1	1392	141.798209015858	156
1	1411	143.439504325415	157
1	1411	143.439504325415	158
1	1428	145.266233777618	159
1	1428	145.266233777618	160
1	1446	146.676204986237	161
1	1446	146.676204986237	162
1	1466	148.232085965737	163
1	1466	148.232085965737	164
1	1480	150.137811451948	165
1	1480	150.137811451948	166
1	1503	152.148631644736	167
1	1503	152.148631644736	168
1	1521	153.430748289119	169
1	1521	153.430748289119	170
1	1536	156.654816697382	171
1	1536	156.654816697382	172
1	1549	157.784032169967	173
1	1549	157.784032169967	174
1	1568	159.797846797167	175
1	1568	159.797846797167	176
1	1596	164.667288179373	177
1	1596	164.667288179373	178
1	1603	165.627061705651	179
1	1603	165.627061705651	180
1	1621	167.061082244044	181
1	1621	167.061082244044	182
1	1639	168.62484700062	183
1	1639	168.62484700062	184
1	1655	169.61785096918	185
1	1655	169.61785096918	186
1	1673	171.185502654163	187
1	1673	171.185502654163	188
1	1688	172.782018748549	189
1	1688	172.782018748549	190
1	1708	174.3814533039	191
1	1708	174.3814533039	192
1	1713	175.924230259444	193
1	1713	175.924230259444	194
1	1755	180.844227944464	195
1	1755	180.844227944464	196
1	1764	181.620583361393	197
1	1764	181.620583361393	198
1	1790	182.84289495598	199
1	1790	182.84289495598	200
1	1802	184.172973347482	201
1	1802	184.172973347482	202
1	1826	185.738221028934	203
1	1826	185.738221028934	204
1	1837	186.869984131835	205
1	1837	186.869984131835	206
1	1860	189.127966661272	207
1	1860	189.127966661272	208
1	1873	189.982704321805	209
1	1873	189.982704321805	210
1	1894	191.477257347892	211
1	1894	191.477257347892	212
1	1907	193.030018304459	213
1	1907	193.030018304459	214
1	1924	196.04094756754	215
1	1924	196.04094756754	216
1	1944	199.242267149151	217
1	1944	199.242267149151	218
1	1952	200.4765809725	219
1	1952	200.4765809725	220
1	1964	202.433333835349	221
1	1964	202.433333835349	222
1	1983	203.67143048043	223
1	1983	203.67143048043	224
1	1988	204.907103828884	225
1	1988	204.907103828884	226
1	2009	207.023653584627	227
1	2009	207.023653584627	228
1	2021	208.332682599325	229
1	2021	208.332682599325	230
1	2038	210.160887891428	231
1	2038	210.160887891428	232
1	2058	213.462712584039	233
1	2058	213.462712584039	234
1	2062	214.85048611798	235
1	2062	214.85048611798	236
1	2081	216.351574337683	237
1	2081	216.351574337683	238
1	2102	217.655418983206	239
1	2102	217.655418983206	240
1	2114	219.054430547236	241
1	2114	219.054430547236	242
1	2143	221.985567942091	243
1	2143	221.985567942091	244
1	2160	223.744843611184	245
1	2160	223.744843611184	246
1	2177	225.022534774129	247
1	2177	225.022534774129	248
1	2193	226.619440614886	249
1	2193	226.619440614886	250
1	2212	228.192756199533	251
1	2212	228.192756199533	252
1	2224	229.336100819303	253
1	2224	229.336100819303	254
1	2238	230.6440859753	255
1	2238	230.6440859753	256
1	2267	232.600213132013	257
1	2267	232.600213132013	258
1	2272	233.418607105479	259
1	2272	233.418607105479	260
1	2289	235.286789931956	261
1	2289	235.286789931956	262
1	2309	238.255356418661	263
1	2309	238.255356418661	264
2	8	3.223936873597	1
2	17	3.469514397771	2
2	24	4.724352128415	3
2	58	8.264789683048	4
2	73	9.937181673537	5
2	80	10.093715205134	6
2	85	11.762895194355	7
2	95	12.013173408336	8
2	117	16.658610462682	9
2	142	19.958415675345	10
2	151	20.177794843088	11
2	166	22.038775365904	12
2	172	22.97504308935	13
2	179	23.177219463464	14
2	201	25.18480806704	15
2	206	26.093710947704	16
2	217	26.45000552524	17
2	225	27.780154954588	18
2	242	28.903070251213	19
2	260	30.255164620571	20
2	264	30.405689277141	21
2	279	31.273404760805	22
2	281	31.286196927262	23
2	291	32.619403876939	24
2	297	32.864773403234	25
2	316	36.565104366796	26
2	340	37.705929315164	27
2	357	40.100614497717	28
2	360	40.113683897962	29
2	373	41.569265028005	30
2	384	41.978388101491	31
2	392	43.682669954157	32
2	410	45.168870336918	33
2	412	45.229393853959	34
2	429	47.10694939005	35
2	443	48.592728529622	36
2	469	49.878247038447	37
2	482	51.497114380693	38
2	485	51.552306483681	39
2	498	53.239933498376	40
2	505	53.431711269728	41
2	514	54.61497690266	42
2	520	54.760163328792	43
2	535	56.509589866548	44
2	541	56.577905672979	45
2	567	60.934354865187	46
2	591	62.652234467429	47
2	606	63.94140745863	48
2	625	66.852365354027	49
2	628	66.906898930292	50
2	644	68.6980501454	51
2	658	69.877885544142	52
2	664	70.135287198978	53
2	666	70.940131434728	54
2	679	71.289648405672	55
2	686	72.701752463116	56
2	694	72.899559568738	57
2	705	74.493851489895	58
2	720	75.577744639768	59
2	726	75.685500038977	60
2	734	76.845672410818	61
2	740	77.046856565437	62
2	748	78.160925053116	63
2	753	78.401357682946	64
2	766	79.895138663187	65
2	782	83.032425996257	66
2	815	86.23252540168	67
2	833	88.024919767445	68
2	852	89.354035480916	69
2	859	90.279742767387	70
2	878	91.981844449585	71
2	881	92.154657430466	72
2	891	92.976896619831	73
2	895	93.105950306728	74
2	905	94.460578197976	75
2	927	95.790403825374	76
2	946	97.016668780897	77
2	957	98.757685467297	78
2	984	100.227562385846	79
2	990	101.81973959112	80
2	1001	102.079287027495	81
2	1005	102.848667335121	82
2	1009	102.959432686509	83
2	1026	104.930385534609	84
2	1032	105.845055061177	85
2	1043	106.094139511684	86
2	1049	107.336190775015	87
2	1052	107.409374853237	88
2	1074	109.140880820506	89
2	1082	110.605637454892	90
2	1085	110.728695576329	91
2	1099	112.522204639796	92
2	1103	112.829203444162	93
2	1121	114.391714449789	94
2	1136	116.096490885981	95
2	1176	119.707868559154	96
2	1184	119.826169863914	97
2	1190	120.932764160058	98
2	1198	121.144188791686	99
2	1206	123.078634845279	100
2	1213	123.207755257056	101
2	1229	124.765565795507	102
2	1247	126.438535684913	103
2	1271	128.954159093023	104
2	1277	129.236552273539	105
2	1293	130.167704909129	106
2	1302	131.314806733711	107
2	1308	131.535890792885	108
2	1319	133.075934502363	109
2	1346	134.588454002206	110
2	1352	136.32668556988	111
2	1363	138.182722343651	112
2	1372	138.452694155963	113
2	1377	139.767678444518	114
2	1382	139.901505586467	115
2	1392	141.798209015858	116
2	1401	142.043020265038	117
2	1411	143.439504325415	118
2	1428	145.266233777618	119
2	1431	145.386099625956	120
2	1446	146.676204986237	121
2	1466	148.232085965737	122
2	1480	150.137811451948	123
2	1503	152.148631644736	124
2	1521	153.430748289119	125
2	1536	156.654816697382	126
2	1542	156.807064116535	127
2	1549	157.784032169967	128
2	1568	159.797846797167	129
2	1574	160.195996403806	130
2	1596	164.667288179373	131
2	1598	164.757850718113	132
2	1603	165.627061705651	133
2	1621	167.061082244044	134
2	1639	168.62484700062	135
2	1655	169.61785096918	136
2	1673	171.185502654163	137
2	1688	172.782018748549	138
2	1693	172.919864121165	139
2	1708	174.3814533039	140
2	1713	175.924230259444	141
2	1755	180.844227944464	142
2	1764	181.620583361393	143
2	1790	182.84289495598	144
2	1802	184.172973347482	145
2	1810	184.503432852725	146
2	1826	185.738221028934	147
2	1837	186.869984131835	148
2	1848	187.190500714677	149
2	1860	189.127966661272	150
2	1873	189.982704321805	151
2	1877	190.248022329898	152
2	1894	191.477257347892	153
2	1907	193.030018304459	154
2	1913	193.187255904223	155
2	1924	196.04094756754	156
2	1929	196.161608777949	157
2	1944	199.242267149151	158
2	1952	200.4765809725	159
2	1964	202.433333835349	160
2	1969	202.603558582105	161
2	1983	203.67143048043	162
2	1988	204.907103828884	163
2	1993	205.084486790654	164
2	2009	207.023653584627	165
2	2021	208.332682599325	166
2	2025	208.501214998993	167
2	2038	210.160887891428	168
2	2042	210.236325189994	169
2	2058	213.462712584039	170
2	2062	214.85048611798	171
2	2081	216.351574337683	172