version 3
run General-0-20231019-19:13:55-57309
attr configname General
attr datetime 20231019-19:13:55
attr datetimef 20231019-191355
attr experiment General
attr inifile omnetpp.ini
attr iterationvars ""
attr iterationvarsd ""
attr iterationvarsf ""
attr measurement ""
attr network Reliability
attr processid 57309
attr repetition 0
attr replication #0
attr resultdir results
attr runnumber 0
attr seedset 0
config network Reliability
config Reliability.node[*].transmissionTime "uniform(1s, 2s)"
config Reliability.node[*].delayTime "uniform(0.01s, 0.2s)"
config Reliability.node[0].lossProbability 0.3
config Reliability.node[1].lossProbability 0.3
config Reliability.node[2].lossProbability 0.3
config Reliability.node[3].lossProbability 0.3/2
config Reliability.node[4].lossProbability 0.3/2
config Reliability.node[5].lossProbability 0.3*2
config Reliability.node[6].lossProbability 0.3*2
config Reliability.node[7].lossProbability 0.3*3
config record-eventlog true
config sim-time-limit 240s
config repeat 5

vector 0 Reliability.node[0] txVector ETV
vector 1 Reliability.node[1] txVector ETV
vector 2 Reliability.node[1] rxVector ETV
vector 3 Reliability.node[2] txVector ETV
vector 4 Reliability.node[2] rxVector ETV
vector 5 Reliability.node[3] txVector ETV
vector 6 Reliability.node[3] rxVector ETV
vector 7 Reliability.node[4] txVector ETV
vector 8 Reliability.node[4] rxVector ETV
vector 9 Reliability.node[0] rxVector ETV
vector 10 Reliability.node[6] txVector ETV
vector 11 Reliability.node[6] rxVector ETV
vector 12 Reliability.node[5] txVector ETV
vector 13 Reliability.node[5] rxVector ETV
vector 14 Reliability.node[7] rxVector ETV
vector 15 Reliability.node[7] e2eVector ETV
0	1	0.114274565438	1
0	1	0.114274565438	2
0	1	0.114274565438	2
0	1	0.114274565438	2
0	18	1.958540309528	3
0	18	1.958540309528	4
0	18	1.958540309528	4
0	18	1.958540309528	4
0	35	3.736697066417	5
0	35	3.736697066417	6
0	35	3.736697066417	6
0	35	3.736697066417	6
0	46	5.06083807054	7
0	46	5.06083807054	8
0	46	5.06083807054	8
0	46	5.06083807054	8
0	49	6.73147594424	9
0	49	6.73147594424	10
0	49	6.73147594424	10
0	49	6.73147594424	10
0	68	8.482162083108	11
0	68	8.482162083108	12
0	68	8.482162083108	12
0	68	8.482162083108	12
0	71	10.303155314019	13
0	71	10.303155314019	14
0	71	10.303155314019	14
0	71	10.303155314019	14
0	79	11.97681494507	15
0	79	11.97681494507	16
0	79	11.97681494507	16
0	79	11.97681494507	16
0	98	13.259621904539	17
0	98	13.259621904539	18
0	98	13.259621904539	18
0	98	13.259621904539	18
0	112	14.524352068855	19
0	112	14.524352068855	20
0	112	14.524352068855	20
0	112	14.524352068855	20
0	129	15.74743369951	21
0	129	15.74743369951	22
0	129	15.74743369951	22
0	129	15.74743369951	22
0	143	17.366242260515	23
0	143	17.366242260515	24
0	143	17.366242260515	24
0	143	17.366242260515	24
0	162	19.018345534877	25
0	162	19.018345534877	26
0	162	19.018345534877	26
0	162	19.018345534877	26
0	178	20.429742259282	27
0	178	20.429742259282	28
0	178	20.429742259282	28
0	178	20.429742259282	28
0	181	21.629738784704	29
0	181	21.629738784704	30
0	181	21.629738784704	30
0	181	21.629738784704	30
0	198	23.093189760886	31
0	198	23.093189760886	32
0	198	23.093189760886	32
0	198	23.093189760886	32
0	201	24.303033514956	33
0	201	24.303033514956	34
0	201	24.303033514956	34
0	201	24.303033514956	34
0	218	25.872607046815	35
0	218	25.872607046815	36
0	218	25.872607046815	36
0	218	25.872607046815	36
0	237	27.862945992809	37
0	237	27.862945992809	38
0	237	27.862945992809	38
0	237	27.862945992809	38
0	252	29.092387821835	39
0	252	29.092387821835	40
0	252	29.092387821835	40
0	252	29.092387821835	40
0	261	30.224455931534	41
0	261	30.224455931534	42
0	261	30.224455931534	42
0	261	30.224455931534	42
0	275	31.254908897293	43
0	275	31.254908897293	44
0	275	31.254908897293	44
0	275	31.254908897293	44
0	294	33.04006180757	45
0	294	33.04006180757	46
0	294	33.04006180757	46
0	294	33.04006180757	46
0	308	35.014320475592	47
0	308	35.014320475592	48
0	308	35.014320475592	48
0	308	35.014320475592	48
0	325	36.876511989704	49
0	325	36.876511989704	50
0	325	36.876511989704	50
0	325	36.876511989704	50
0	339	38.553923814169	51
0	339	38.553923814169	52
0	339	38.553923814169	52
0	339	38.553923814169	52
0	350	40.24954926044	53
0	350	40.24954926044	54
0	350	40.24954926044	54
0	350	40.24954926044	54
0	365	41.319408277825	55
0	365	41.319408277825	56
0	365	41.319408277825	56
0	365	41.319408277825	56
0	379	42.749810717378	57
0	379	42.749810717378	58
0	379	42.749810717378	58
0	379	42.749810717378	58
0	395	44.550189176185	59
0	395	44.550189176185	60
0	395	44.550189176185	60
0	395	44.550189176185	60
0	412	46.00741263021	61
0	412	46.00741263021	62
0	412	46.00741263021	62
0	412	46.00741263021	62
0	429	47.399186953048	63
0	429	47.399186953048	64
0	429	47.399186953048	64
0	429	47.399186953048	64
0	434	48.620347865003	65
0	434	48.620347865003	66
0	434	48.620347865003	66
0	434	48.620347865003	66
0	450	50.601987545223	67
0	450	50.601987545223	68
0	450	50.601987545223	68
0	450	50.601987545223	68
0	464	52.119296058391	69
0	464	52.119296058391	70
0	464	52.119296058391	70
0	464	52.119296058391	70
0	475	53.501055858641	71
0	475	53.501055858641	72
0	475	53.501055858641	72
0	475	53.501055858641	72
0	480	55.231764961344	73
0	480	55.231764961344	74
0	480	55.231764961344	74
0	480	55.231764961344	74
0	496	56.556169822656	75
0	496	56.556169822656	76
0	496	56.556169822656	76
0	496	56.556169822656	76
0	510	58.550570610755	77
0	510	58.550570610755	78
0	510	58.550570610755	78
0	510	58.550570610755	78
0	529	59.809272927775	79
0	529	59.809272927775	80
0	529	59.809272927775	80
0	529	59.809272927775	80
0	548	60.913900813165	81
0	548	60.913900813165	82
0	548	60.913900813165	82
0	548	60.913900813165	82
0	562	62.416610357662	83
0	562	62.416610357662	84
0	562	62.416610357662	84
0	562	62.416610357662	84
0	579	64.017002591242	85
0	579	64.017002591242	86
0	579	64.017002591242	86
0	579	64.017002591242	86
0	594	65.90426742689	87
0	594	65.90426742689	88
0	594	65.90426742689	88
0	594	65.90426742689	88
0	613	67.293402106112	89
0	613	67.293402106112	90
0	613	67.293402106112	90
0	613	67.293402106112	90
0	629	68.480954040617	91
0	629	68.480954040617	92
0	629	68.480954040617	92
0	629	68.480954040617	92
0	648	69.719367315837	93
0	648	69.719367315837	94
0	648	69.719367315837	94
0	648	69.719367315837	94
0	657	71.676300286392	95
0	657	71.676300286392	96
0	657	71.676300286392	96
0	657	71.676300286392	96
0	674	73.449383840274	97
0	674	73.449383840274	98
0	674	73.449383840274	98
0	674	73.449383840274	98
0	685	75.068566636724	99
0	685	75.068566636724	100
0	685	75.068566636724	100
0	685	75.068566636724	100
0	688	76.925691554864	101
0	688	76.925691554864	102
0	688	76.925691554864	102
0	688	76.925691554864	102
0	693	78.383950564154	103
0	693	78.383950564154	104
0	693	78.383950564154	104
0	693	78.383950564154	104
0	712	80.097717434243	105
0	712	80.097717434243	106
0	712	80.097717434243	106
0	712	80.097717434243	106
0	723	81.763395164004	107
0	723	81.763395164004	108
0	723	81.763395164004	108
0	723	81.763395164004	108
0	734	82.782518061651	109
0	734	82.782518061651	110
0	734	82.782518061651	110
0	734	82.782518061651	110
0	737	84.296277796459	111
0	737	84.296277796459	112
0	737	84.296277796459	112
0	737	84.296277796459	112
0	751	85.458398063975	113
0	751	85.458398063975	114
0	751	85.458398063975	114
0	751	85.458398063975	114
0	765	86.55401794713	115
0	765	86.55401794713	116
0	765	86.55401794713	116
0	765	86.55401794713	116
0	770	88.078397752792	117
0	770	88.078397752792	118
0	770	88.078397752792	118
0	770	88.078397752792	118
0	787	89.825234128936	119
0	787	89.825234128936	120
0	787	89.825234128936	120
0	787	89.825234128936	120
0	804	91.072919147164	121
0	804	91.072919147164	122
0	804	91.072919147164	122
0	804	91.072919147164	122
0	815	92.794349255581	123
0	815	92.794349255581	124
0	815	92.794349255581	124
0	815	92.794349255581	124
0	824	93.950732601416	125
0	824	93.950732601416	126
0	824	93.950732601416	126
0	824	93.950732601416	126
0	835	95.722998178639	127
0	835	95.722998178639	128
0	835	95.722998178639	128
0	835	95.722998178639	128
0	849	97.532363149412	129
0	849	97.532363149412	130
0	849	97.532363149412	130
0	849	97.532363149412	130
0	863	98.899989323532	131
0	863	98.899989323532	132
0	863	98.899989323532	132
0	863	98.899989323532	132
0	879	100.015651192358	133
0	879	100.015651192358	134
0	879	100.015651192358	134
0	879	100.015651192358	134
0	896	101.590729007572	135
0	896	101.590729007572	136
0	896	101.590729007572	136
0	896	101.590729007572	136
0	901	102.930360056069	137
0	901	102.930360056069	138
0	901	102.930360056069	138
0	901	102.930360056069	138
0	917	104.131370339385	139
0	917	104.131370339385	140
0	917	104.131370339385	140
0	917	104.131370339385	140
0	928	105.910549771814	141
0	928	105.910549771814	142
0	928	105.910549771814	142
0	928	105.910549771814	142
0	945	107.082745481357	143
0	945	107.082745481357	144
0	945	107.082745481357	144
0	945	107.082745481357	144
0	964	108.982612219946	145
0	964	108.982612219946	146
0	964	108.982612219946	146
0	964	108.982612219946	146
0	967	110.723850297117	147
0	967	110.723850297117	148
0	967	110.723850297117	148
0	967	110.723850297117	148
0	975	111.76677449055	149
0	975	111.76677449055	150
0	975	111.76677449055	150
0	975	111.76677449055	150
0	991	112.931307205772	151
0	991	112.931307205772	152
0	991	112.931307205772	152
0	991	112.931307205772	152
0	1010	114.111102493321	153
0	1010	114.111102493321	154
0	1010	114.111102493321	154
0	1010	114.111102493321	154
0	1027	115.555223902994	155
0	1027	115.555223902994	156
0	1027	115.555223902994	156
0	1027	115.555223902994	156
0	1046	117.326449365894	157
0	1046	117.326449365894	158
0	1046	117.326449365894	158
0	1046	117.326449365894	158
0	1049	118.570825439253	159
0	1049	118.570825439253	160
0	1049	118.570825439253	160
0	1049	118.570825439253	160
0	1066	120.153145172707	161
0	1066	120.153145172707	162
0	1066	120.153145172707	162
0	1066	120.153145172707	162
0	1069	122.029430066542	163
0	1069	122.029430066542	164
0	1069	122.029430066542	164
0	1069	122.029430066542	164
0	1086	123.158785832188	165
0	1086	123.158785832188	166
0	1086	123.158785832188	166
0	1086	123.158785832188	166
0	1100	124.358315362436	167
0	1100	124.358315362436	168
0	1100	124.358315362436	168
0	1100	124.358315362436	168
0	1109	125.916366602368	169
0	1109	125.916366602368	170
0	1109	125.916366602368	170
0	1109	125.916366602368	170
0	1126	127.567594165755	171
0	1126	127.567594165755	172
0	1126	127.567594165755	172
0	1126	127.567594165755	172
0	1137	129.428717174176	173
0	1137	129.428717174176	174
0	1137	129.428717174176	174
0	1137	129.428717174176	174
0	1154	130.746615039026	175
0	1154	130.746615039026	176
0	1154	130.746615039026	176
0	1154	130.746615039026	176
0	1162	132.170202680705	177
0	1162	132.170202680705	178
0	1162	132.170202680705	178
0	1162	132.170202680705	178
0	1173	133.376266213441	179
0	1173	133.376266213441	180
0	1173	133.376266213441	180
0	1173	133.376266213441	180
0	1190	134.959459043182	181
0	1190	134.959459043182	182
0	1190	134.959459043182	182
0	1190	134.959459043182	182
0	1193	136.125748612294	183
0	1193	136.125748612294	184
0	1193	136.125748612294	184
0	1193	136.125748612294	184
0	1212	137.475646287743	185
0	1212	137.475646287743	186
0	1212	137.475646287743	186
0	1212	137.475646287743	186
0	1231	139.241478768019	187
0	1231	139.241478768019	188
0	1231	139.241478768019	188
0	1231	139.241478768019	188
0	1248	140.608954091165	189
0	1248	140.608954091165	190
0	1248	140.608954091165	190
0	1248	140.608954091165	190
0	1265	141.95187488555	191
0	1265	141.95187488555	192
0	1265	141.95187488555	192
0	1265	141.95187488555	192
0	1282	143.725134018185	193
0	1282	143.725134018185	194
0	1282	143.725134018185	194
0	1282	143.725134018185	194
0	1296	145.349631492356	195
0	1296	145.349631492356	196
0	1296	145.349631492356	196
0	1296	145.349631492356	196
0	1312	147.321394568384	197
0	1312	147.321394568384	198
0	1312	147.321394568384	198
0	1312	147.321394568384	198
0	1328	149.317935429355	199
0	1328	149.317935429355	200
0	1328	149.317935429355	200
0	1328	149.317935429355	200
0	1343	150.86678176078	201
0	1343	150.86678176078	202
0	1343	150.86678176078	202
0	1343	150.86678176078	202
0	1359	152.733240430085	203
0	1359	152.733240430085	204
0	1359	152.733240430085	204
0	1359	152.733240430085	204
0	1378	154.502395961974	205
0	1378	154.502395961974	206
0	1378	154.502395961974	206
0	1378	154.502395961974	206
0	1381	156.055041838046	207
0	1381	156.055041838046	208
0	1381	156.055041838046	208
0	1381	156.055041838046	208
0	1397	157.360088537521	209
0	1397	157.360088537521	210
0	1397	157.360088537521	210
0	1397	157.360088537521	210
0	1402	159.006579130031	211
0	1402	159.006579130031	212
0	1402	159.006579130031	212
0	1402	159.006579130031	212
0	1413	160.302471105084	213
0	1413	160.302471105084	214
0	1413	160.302471105084	214
0	1413	160.302471105084	214
0	1430	161.407843613606	215
0	1430	161.407843613606	216
0	1430	161.407843613606	216
0	1430	161.407843613606	216
0	1446	162.923967316588	217
0	1446	162.923967316588	218
0	1446	162.923967316588	218
0	1446	162.923967316588	218
0	1462	164.210420857723	219
0	1462	164.210420857723	220
0	1462	164.210420857723	220
0	1462	164.210420857723	220
0	1470	166.109058528281	221
0	1470	166.109058528281	222
0	1470	166.109058528281	222
0	1470	166.109058528281	222
0	1479	167.982049106461	223
0	1479	167.982049106461	224
0	1479	167.982049106461	224
0	1479	167.982049106461	224
0	1496	169.280799411311	225
0	1496	169.280799411311	226
0	1496	169.280799411311	226
0	1496	169.280799411311	226
0	1513	170.654248306601	227
0	1513	170.654248306601	228
0	1513	170.654248306601	228
0	1513	170.654248306601	228
0	1532	172.192194090531	229
0	1532	172.192194090531	230
0	1532	172.192194090531	230
0	1532	172.192194090531	230
0	1551	173.346323940743	231
0	1551	173.346323940743	232
0	1551	173.346323940743	232
0	1551	173.346323940743	232
0	1556	175.329598809432	233
0	1556	175.329598809432	234
0	1556	175.329598809432	234
0	1556	175.329598809432	234
0	1570	176.479097346149	235
0	1570	176.479097346149	236
0	1570	176.479097346149	236
0	1570	176.479097346149	236
0	1587	177.883870975652	237
0	1587	177.883870975652	238
0	1587	177.883870975652	238
0	1587	177.883870975652	238
0	1601	179.636957232679	239
0	1601	179.636957232679	240
0	1601	179.636957232679	240
0	1601	179.636957232679	240
0	1618	180.775394078183	241
0	1618	180.775394078183	242
0	1618	180.775394078183	242
0	1618	180.775394078183	242
0	1635	181.909822137632	243
0	1635	181.909822137632	244
0	1635	181.909822137632	244
0	1635	181.909822137632	244
0	1652	182.950696993691	245
0	1652	182.950696993691	246
0	1652	182.950696993691	246
0	1652	182.950696993691	246
0	1667	184.093758421789	247
0	1667	184.093758421789	248
0	1667	184.093758421789	248
0	1667	184.093758421789	248
0	1683	185.750596769226	249
0	1683	185.750596769226	250
0	1683	185.750596769226	250
0	1683	185.750596769226	250
0	1699	187.597614115874	251
0	1699	187.597614115874	252
0	1699	187.597614115874	252
0	1699	187.597614115874	252
0	1710	188.699384378108	253
0	1710	188.699384378108	254
0	1710	188.699384378108	254
0	1710	188.699384378108	254
0	1726	190.514995347547	255
0	1726	190.514995347547	256
0	1726	190.514995347547	256
0	1726	190.514995347547	256
0	1743	191.943805123751	257
0	1743	191.943805123751	258
0	1743	191.943805123751	258
0	1743	191.943805123751	258
0	1754	193.329096685003	259
0	1754	193.329096685003	260
0	1754	193.329096685003	260
0	1754	193.329096685003	260
0	1765	195.312023164078	261
0	1765	195.312023164078	262
0	1765	195.312023164078	262
0	1765	195.312023164078	262
0	1779	196.530806473296	263
0	1779	196.530806473296	264
0	1779	196.530806473296	264
0	1779	196.530806473296	264
0	1798	197.685647179445	265
0	1798	197.685647179445	266
0	1798	197.685647179445	266
0	1798	197.685647179445	266
0	1817	199.010646113034	267
0	1817	199.010646113034	268
0	1817	199.010646113034	268
0	1817	199.010646113034	268
0	1833	200.394919287486	269
0	1833	200.394919287486	270
0	1833	200.394919287486	270
0	1833	200.394919287486	270
0	1847	202.073613929868	271
0	1847	202.073613929868	272
0	1847	202.073613929868	272
0	1847	202.073613929868	272
0	1866	203.8452167379	273
0	1866	203.8452167379	274
0	1866	203.8452167379	274
0	1866	203.8452167379	274
0	1869	205.792731103327	275
0	1869	205.792731103327	276
0	1869	205.792731103327	276
0	1869	205.792731103327	276
0	1885	207.086347922988	277
0	1885	207.086347922988	278
0	1885	207.086347922988	278
0	1885	207.086347922988	278
0	1902	209.0610509455	279
0	1902	209.0610509455	280
0	1902	209.0610509455	280
0	1902	209.0610509455	280
0	1918	210.922873931777	281
0	1918	210.922873931777	282
0	1918	210.922873931777	282
0	1918	210.922873931777	282
0	1935	212.619164777993	283
0	1935	212.619164777993	284
0	1935	212.619164777993	284
0	1935	212.619164777993	284
0	1952	213.966624446985	285
0	1952	213.966624446985	286
0	1952	213.966624446985	286
0	1952	213.966624446985	286
0	1955	215.918524828114	287
0	1955	215.918524828114	288
0	1955	215.918524828114	288
0	1955	215.918524828114	288
0	1972	217.855647844801	289
0	1972	217.855647844801	290
0	1972	217.855647844801	290
0	1972	217.855647844801	290
0	1989	219.706053010727	291
0	1989	219.706053010727	292
0	1989	219.706053010727	292
0	1989	219.706053010727	292
0	1992	221.389654512125	293
0	1992	221.389654512125	294
0	1992	221.389654512125	294
0	1992	221.389654512125	294
0	2006	222.770104190641	295
0	2006	222.770104190641	296
0	2006	222.770104190641	296
0	2006	222.770104190641	296
0	2017	224.655626829787	297
0	2017	224.655626829787	298
0	2017	224.655626829787	298
0	2017	224.655626829787	298
0	2031	225.809569628051	299
0	2031	225.809569628051	300
0	2031	225.809569628051	300
0	2031	225.809569628051	300
0	2048	227.807768582905	301
0	2048	227.807768582905	302
0	2048	227.807768582905	302
0	2048	227.807768582905	302
0	2065	229.005209893992	303
0	2065	229.005209893992	304
0	2065	229.005209893992	304
0	2065	229.005209893992	304
0	2076	230.178403128011	305
0	2076	230.178403128011	306
0	2076	230.178403128011	306
0	2076	230.178403128011	306
0	2090	231.53530704866	307
0	2090	231.53530704866	308
0	2090	231.53530704866	308
0	2090	231.53530704866	308
0	2109	232.560538874313	309
0	2109	232.560538874313	310
0	2109	232.560538874313	310
0	2109	232.560538874313	310
0	2128	234.204182890316	311
0	2128	234.204182890316	312
0	2128	234.204182890316	312
0	2128	234.204182890316	312
0	2142	235.253468150112	313
0	2142	235.253468150112	314
0	2142	235.253468150112	314
0	2142	235.253468150112	314
0	2161	237.023729594031	315
0	2161	237.023729594031	316
0	2161	237.023729594031	316
0	2161	237.023729594031	316
0	2175	238.598719921967	317
0	2175	238.598719921967	318
0	2175	238.598719921967	318
0	2175	238.598719921967	318
1	2	0.246915042552	1
1	2	0.246915042552	2
1	2	0.246915042552	3
1	23	2.474018352931	4
1	23	2.474018352931	5
1	23	2.474018352931	6
1	41	4.088059024871	7
1	41	4.088059024871	8
1	41	4.088059024871	9
1	51	6.819524856578	10
1	51	6.819524856578	11
1	51	6.819524856578	12
1	80	12.004260624973	13
1	80	12.004260624973	14
1	80	12.004260624973	15
1	100	13.43948526775	16
1	100	13.43948526775	17
1	100	13.43948526775	18
1	113	14.653079930139	19
1	113	14.653079930139	20
1	113	14.653079930139	21
1	130	15.842458865019	22
1	130	15.842458865019	23
1	130	15.842458865019	24
1	144	17.510350415447	25
1	144	17.510350415447	26
1	144	17.510350415447	27
1	167	19.38002620692	28
1	167	19.38002620692	29
1	167	19.38002620692	30
1	188	22.133288629294	31
1	188	22.133288629294	32
1	188	22.133288629294	33
1	202	24.36459589485	34
1	202	24.36459589485	35
1	202	24.36459589485	36
1	220	26.062974591968	37
1	220	26.062974591968	38
1	220	26.062974591968	39
1	238	28.032806482876	40
1	238	28.032806482876	41
1	238	28.032806482876	42
1	254	29.210689852952	43
1	254	29.210689852952	44
1	254	29.210689852952	45
1	262	30.381651257077	46
1	262	30.381651257077	47
1	262	30.381651257077	48
1	276	31.40219304032	49
1	276	31.40219304032	50
1	276	31.40219304032	51
1	297	33.206993750395	52
1	297	33.206993750395	53
1	297	33.206993750395	54
1	309	35.052910927956	55
1	309	35.052910927956	56
1	309	35.052910927956	57
1	327	36.944130306458	58
1	327	36.944130306458	59
1	327	36.944130306458	60
1	341	38.703747267607	61
1	341	38.703747267607	62
1	341	38.703747267607	63
1	351	40.303439057607	64
1	351	40.303439057607	65
1	351	40.303439057607	66
1	366	41.346127140704	67
1	366	41.346127140704	68
1	366	41.346127140704	69
1	380	42.785575348872	70
1	380	42.785575348872	71
1	380	42.785575348872	72
1	397	44.733156478456	73
1	397	44.733156478456	74
1	397	44.733156478456	75
1	414	46.111749579366	76
1	414	46.111749579366	77
1	414	46.111749579366	78
1	437	48.733642565743	79
1	437	48.733642565743	80
1	437	48.733642565743	81
1	451	50.748500776911	82
1	451	50.748500776911	83
1	451	50.748500776911	84
1	465	52.188170420253	85
1	465	52.188170420253	86
1	465	52.188170420253	87
1	481	55.322871432083	88
1	481	55.322871432083	89
1	481	55.322871432083	90
1	500	56.760083281142	91
1	500	56.760083281142	92
1	500	56.760083281142	93
1	511	58.598781446629	94
1	511	58.598781446629	95
1	511	58.598781446629	96
1	530	59.914038674187	97
1	530	59.914038674187	98
1	530	59.914038674187	99
1	555	61.167696933997	100
1	555	61.167696933997	101
1	555	61.167696933997	102
1	564	62.559577721523	103
1	564	62.559577721523	104
1	564	62.559577721523	105
1	580	64.139435055228	106
1	580	64.139435055228	107
1	580	64.139435055228	108
1	608	66.519022409727	109
1	608	66.519022409727	110
1	608	66.519022409727	111
1	614	67.396006627341	112
1	614	67.396006627341	113
1	614	67.396006627341	114
1	630	68.554914036677	115
1	630	68.554914036677	116
1	630	68.554914036677	117
1	649	69.846539543041	118
1	649	69.846539543041	119
1	649	69.846539543041	120
1	663	72.034943661796	121
1	663	72.034943661796	122
1	663	72.034943661796	123
1	675	73.486528106867	124
1	675	73.486528106867	125
1	675	73.486528106867	126
1	694	78.469447007364	127
1	694	78.469447007364	128
1	694	78.469447007364	129
1	713	80.133911715809	130
1	713	80.133911715809	131
1	713	80.133911715809	132
1	724	81.819602878401	133
1	724	81.819602878401	134
1	724	81.819602878401	135
1	739	84.478970271259	136
1	739	84.478970271259	137
1	739	84.478970271259	138
1	752	85.544937443219	139
1	752	85.544937443219	140
1	752	85.544937443219	141
1	776	88.56325764376	142
1	776	88.56325764376	143
1	776	88.56325764376	144
1	788	89.845496966365	145
1	788	89.845496966365	146
1	788	89.845496966365	147
1	811	91.492959840237	148
1	811	91.492959840237	149
1	811	91.492959840237	150
1	816	92.833807868749	151
1	816	92.833807868749	152
1	816	92.833807868749	153
1	827	94.148439960585	154
1	827	94.148439960585	155
1	827	94.148439960585	156
1	836	95.814705427583	157
1	836	95.814705427583	158
1	836	95.814705427583	159
1	851	97.66851535952	160
1	851	97.66851535952	161
1	851	97.66851535952	162
1	864	99.03507459487	163
1	864	99.03507459487	164
1	864	99.03507459487	165
1	881	100.205982391229	166
1	881	100.205982391229	167
1	881	100.205982391229	168
1	902	102.998548940621	169
1	902	102.998548940621	170
1	902	102.998548940621	171
1	919	104.261135129473	172
1	919	104.261135129473	173
1	919	104.261135129473	174
1	929	106.024963573909	175
1	929	106.024963573909	176
1	929	106.024963573909	177
1	946	107.124766191042	178
1	946	107.124766191042	179
1	946	107.124766191042	180
1	981	111.975444740055	181
1	981	111.975444740055	182
1	981	111.975444740055	183
1	992	113.006566977841	184
1	992	113.006566977841	185
1	992	113.006566977841	186
1	1012	114.31541733223	187
1	1012	114.31541733223	188
1	1012	114.31541733223	189
1	1028	115.615852619141	190
1	1028	115.615852619141	191
1	1028	115.615852619141	192
1	1052	118.772023822453	193
1	1052	118.772023822453	194
1	1052	118.772023822453	195
1	1073	122.23863497242	196
1	1073	122.23863497242	197
1	1073	122.23863497242	198
1	1087	123.229475582581	199
1	1087	123.229475582581	200
1	1087	123.229475582581	201
1	1102	124.514192580214	202
1	1102	124.514192580214	203
1	1102	124.514192580214	204
1	1110	126.108283676206	205
1	1110	126.108283676206	206
1	1110	126.108283676206	207
1	1127	127.771388347216	208
1	1127	127.771388347216	209
1	1127	127.771388347216	210
1	1138	129.467717683194	211
1	1138	129.467717683194	212
1	1138	129.467717683194	213
1	1163	132.253178545744	214
1	1163	132.253178545744	215
1	1163	132.253178545744	216
1	1174	133.42059017919	217
1	1174	133.42059017919	218
1	1174	133.42059017919	219
1	1199	136.417687948777	220
1	1199	136.417687948777	221
1	1199	136.417687948777	222
1	1213	137.511392759832	223
1	1213	137.511392759832	224
1	1213	137.511392759832	225
1	1232	139.299287046154	226
1	1232	139.299287046154	227
1	1232	139.299287046154	228
1	1249	140.772568921845	229
1	1249	140.772568921845	230
1	1249	140.772568921845	231
1	1272	142.557892533555	232
1	1272	142.557892533555	233
1	1272	142.557892533555	234
1	1285	143.878407761555	235
1	1285	143.878407761555	236
1	1285	143.878407761555	237
1	1298	145.466926828523	238
1	1298	145.466926828523	239
1	1298	145.466926828523	240
1	1313	147.436398635344	241
1	1313	147.436398635344	242
1	1313	147.436398635344	243
1	1330	149.490087163369	244
1	1330	149.490087163369	245
1	1330	149.490087163369	246
1	1347	151.031832261602	247
1	1347	151.031832261602	248
1	1347	151.031832261602	249
1	1361	152.921268898349	250
1	1361	152.921268898349	251
1	1361	152.921268898349	252
1	1405	159.156991373976	253
1	1405	159.156991373976	254
1	1405	159.156991373976	255
1	1415	160.476983578054	256
1	1415	160.476983578054	257
1	1415	160.476983578054	258
1	1435	161.650430285972	259
1	1435	161.650430285972	260
1	1435	161.650430285972	261
1	1448	163.098106507496	262
1	1448	163.098106507496	263
1	1448	163.098106507496	264
1	1472	166.229439327316	265
1	1472	166.229439327316	266
1	1472	166.229439327316	267
1	1481	168.062191920666	268
1	1481	168.062191920666	269
1	1481	168.062191920666	270
1	1498	169.477520457487	271
1	1498	169.477520457487	272
1	1498	169.477520457487	273
1	1520	171.124019372643	274
1	1520	171.124019372643	275
1	1520	171.124019372643	276
1	1533	172.286817072568	277
1	1533	172.286817072568	278
1	1533	172.286817072568	279
1	1558	175.534487012057	280
1	1558	175.534487012057	281
1	1558	175.534487012057	282
1	1571	176.536714078186	283
1	1571	176.536714078186	284
1	1571	176.536714078186	285
1	1590	178.050561771118	286
1	1590	178.050561771118	287
1	1590	178.050561771118	288
1	1603	179.790296528097	289
1	1603	179.790296528097	290
1	1603	179.790296528097	291
1	1619	180.915786296166	292
1	1619	180.915786296166	293
1	1619	180.915786296166	294
1	1636	181.933563549904	295
1	1636	181.933563549904	296
1	1636	181.933563549904	297
1	1653	183.096678685383	298
1	1653	183.096678685383	299
1	1653	183.096678685383	300
1	1668	184.151547942513	301
1	1668	184.151547942513	302
1	1668	184.151547942513	303
1	1684	185.813808731506	304
1	1684	185.813808731506	305
1	1684	185.813808731506	306
1	1702	187.738903065747	307
1	1702	187.738903065747	308
1	1702	187.738903065747	309
1	1713	188.805186344457	310
1	1713	188.805186344457	311
1	1713	188.805186344457	312
1	1732	190.951400139596	313
1	1732	190.951400139596	314
1	1732	190.951400139596	315
1	1744	191.973201889493	316
1	1744	191.973201889493	317
1	1744	191.973201889493	318
1	1756	193.447294962502	319
1	1756	193.447294962502	320
1	1756	193.447294962502	321
1	1766	195.438815573745	322
1	1766	195.438815573745	323
1	1766	195.438815573745	324
1	1782	196.711371223375	325
1	1782	196.711371223375	326
1	1782	196.711371223375	327
1	1800	197.791754843213	328
1	1800	197.791754843213	329
1	1800	197.791754843213	330
1	1819	199.147720882576	331
1	1819	199.147720882576	332
1	1819	199.147720882576	333
1	1834	200.463966020651	334
1	1834	200.463966020651	335
1	1834	200.463966020651	336
1	1848	202.254063322969	337
1	1848	202.254063322969	338
1	1848	202.254063322969	339
1	1870	205.916651615203	340
1	1870	205.916651615203	341
1	1870	205.916651615203	342
1	1887	207.290011740541	343
1	1887	207.290011740541	344
1	1887	207.290011740541	345
1	1903	209.138374244539	346
1	1903	209.138374244539	347
1	1903	209.138374244539	348
1	1919	210.970309517554	349
1	1919	210.970309517554	350
1	1919	210.970309517554	351
1	1937	212.6789892976	352
1	1937	212.6789892976	353
1	1937	212.6789892976	354
1	1956	215.954395640114	355
1	1956	215.954395640114	356
1	1956	215.954395640114	357
1	1973	218.011466515149	358
1	1973	218.011466515149	359
1	1973	218.011466515149	360
1	1994	221.435272592857	361
1	1994	221.435272592857	362
1	1994	221.435272592857	363
1	2007	222.862618402139	364
1	2007	222.862618402139	365
1	2007	222.862618402139	366
1	2018	224.745963925478	367
1	2018	224.745963925478	368
1	2018	224.745963925478	369
1	2034	225.974120228243	370
1	2034	225.974120228243	371
1	2034	225.974120228243	372
1	2050	227.902263773464	373
1	2050	227.902263773464	374
1	2050	227.902263773464	375
1	2068	229.196287822039	376
1	2068	229.196287822039	377
1	2068	229.196287822039	378
1	2077	230.307461931117	379
1	2077	230.307461931117	380
1	2077	230.307461931117	381
1	2091	231.562757051085	382
1	2091	231.562757051085	383
1	2091	231.562757051085	384
1	2111	232.692454787656	385
1	2111	232.692454787656	386
1	2111	232.692454787656	387
1	2135	234.674195382902	388
1	2135	234.674195382902	389
1	2135	234.674195382902	390
1	2143	235.27759149356	391
1	2143	235.27759149356	392
1	2143	235.27759149356	393
1	2163	237.205348913763	394
1	2163	237.205348913763	395
1	2163	237.205348913763	396
1	2182	239.011517759314	397
1	2182	239.011517759314	398
1	2182	239.011517759314	399
2	2	0.246915042552	1
2	10	0.473584416151	2
2	12	0.505734315702	3
2	23	2.474018352931	4
2	34	2.680627461328	5
2	41	4.088059024871	6
2	51	6.819524856578	7
2	61	7.005738174515	8
2	65	7.05461671548	9
2	80	12.004260624973	10
2	94	12.287019813924	11
2	97	12.350983483402	12
2	100	13.43948526775	13
2	103	13.553569240545	14
2	106	13.635822863784	15
2	113	14.653079930139	16
2	122	14.897626579367	17
2	130	15.842458865019	18
2	133	15.941220319027	19
2	139	15.997524053846	20
2	144	17.510350415447	21
2	147	17.610869711215	22
2	151	17.739612395238	23
2	167	19.38002620692	24
2	188	22.133288629294	25
2	194	22.320258495611	26
2	202	24.36459589485	27
2	208	24.546110798927	28
2	214	24.774457699137	29
2	220	26.062974591968	30
2	227	26.225863983128	31
2	232	26.296547698702	32