version 3
run General-0-20230920-13:42:18-15878
attr configname General
attr datetime 20230920-13:42:18
attr datetimef 20230920-134218
attr experiment General
attr inifile omnetpp.ini
attr iterationvars ""
attr iterationvarsd ""
attr iterationvarsf ""
attr measurement ""
attr network Tictoc1
attr processid 15878
attr repetition 0
attr replication #0
attr resultdir results
attr runnumber 0
attr seedset 0
config network Tictoc1
config Tictoc1.tic.delayTime exponential(1s)
config Tictoc1.toc.delayTime exponential(0.1s)
config Tictoc1.*.lossProbability 0.2
config record-eventlog true
config sim-time-limit 100s

vector 0 Tictoc1.tic transmissionSignal:vector ETV
attr recordingmode vector
attr source transmissionSignal
attr title tx_t
vector 1 Tictoc1.toc receptionSignal:vector ETV
attr recordingmode vector
attr source receptionSignal
attr title rx_t
vector 2 Tictoc1.toc transmissionSignal:vector ETV
attr recordingmode vector
attr source transmissionSignal
attr title tx_t
vector 3 Tictoc1.tic receptionSignal:vector ETV
attr recordingmode vector
attr source receptionSignal
attr title rx_t
0	1	0.548813502304	0
0	5	4.593615002258	1
0	9	6.56317181581	2
0	13	8.772289517264	3
0	17	10.171840727402	4
0	21	10.710962507792	5
0	25	11.910002331773	6
0	29	15.611314344185	7
0	33	17.555568306707	8
0	37	21.632132243842	9
0	39	22.632132243842	9
0	43	24.93047336307	10
0	45	25.93047336307	10
0	49	32.609561986766	11
0	53	36.905313588016	12
0	57	38.773254120286	13
0	61	40.372513247028	14
0	65	42.996044727847	15
0	67	43.996044727847	15
0	71	46.042830305366	16
0	73	47.042830305366	16
0	77	50.375001713352	17
0	81	51.657327769871	18
0	85	52.300462369147	19
0	89	53.852156233975	20
0	93	54.42674575912	21
0	95	55.42674575912	21
0	99	56.047156831919	22
0	103	58.191396979862	23
0	107	63.337015230418	24
0	111	64.487826828202	25
0	115	69.397982192265	26
0	119	69.732668895776	27
0	123	72.160228405506	28
0	127	72.851384424273	29
0	131	75.843272672698	30
0	135	77.041082949124	31
0	139	77.403892041303	32
0	143	86.613472834172	33
0	147	88.939889171692	34
0	151	89.592518187085	35
0	155	91.642224165845	36
0	159	93.151613795535	37
0	163	95.333369644524	38
0	165	96.333369644524	38
0	169	98.79140178857	39
0	173	99.326981911411	40
1	2	0.648813502304	1
1	6	4.693615002258	2
1	10	6.66317181581	3
1	14	8.872289517264	4
1	18	10.271840727402	5
1	22	10.810962507792	6
1	26	12.010002331773	7
1	30	15.711314344185	8
1	34	17.655568306707	9
1	40	22.732132243842	10
1	46	26.03047336307	11
1	50	32.709561986766	12
1	54	37.005313588016	13
1	58	38.873254120286	14
1	62	40.472513247028	15
1	68	44.096044727847	16
1	74	47.142830305366	17
1	78	50.475001713352	18
1	82	51.757327769871	19
1	86	52.400462369147	20
1	90	53.952156233975	21
1	96	55.52674575912	22
1	100	56.147156831919	23
1	104	58.291396979862	24
1	108	63.437015230418	25
1	112	64.587826828202	26
1	116	69.497982192265	27
1	120	69.832668895776	28
1	124	72.260228405506	29
1	128	72.951384424273	30
1	132	75.943272672698	31
1	136	77.141082949124	32
1	140	77.503892041303	33
1	144	86.713472834172	34
1	148	89.039889171692	35
1	152	89.692518187085	36
1	156	91.742224165845	37
1	160	93.251613795535	38
1	166	96.433369644524	39
1	170	98.89140178857	40
1	174	99.426981911411	41
2	3	0.774406578109	1
2	7	4.888769535846	2
2	11	6.718276664477	3
2	15	8.920802333636	4
2	19	10.494193169606	5
2	23	10.842798121876	6
2	27	12.166891943535	7
2	31	15.776702600907	8
2	35	17.915393715292	9
2	41	22.741248346454	10
2	47	26.209222129414	11
2	51	32.724685072132	12
2	55	37.38983577493	13
2	59	39.034654327775	14
2	63	40.624166844427	15
2	69	44.198187915282	16
2	75	47.432272353165	17
2	79	50.486196329415	18
2	83	51.788055805086	19
2	87	52.533991387609	20
2	91	54.036189704536	21
2	97	55.622883853027	22
2	101	56.172301025126	23
2	105	58.57918848199	24
2	109	63.4967898381	25
2	113	64.645280068876	26
2	117	69.508438314843	27
2	121	69.942560142531	28
2	125	72.278971012108	29
2	129	72.965187293116	30
2	133	76.036878828675	31
2	137	77.225525728477	32
2	141	77.60447914182	33
2	145	86.724236344988	34
2	149	89.140691096234	35
2	153	89.798392458594	36
2	157	91.795730633553	37
2	161	93.279641496383	38
2	167	96.445065185503	39
2	171	98.929557372907	40
2	175	99.448869971062	41
3	4	0.874406578109	1
3	8	4.988769535846	2
3	12	6.818276664477	3
3	16	9.020802333636	4
3	20	10.594193169606	5
3	24	10.942798121876	6
3	28	12.266891943535	7
3	32	15.876702600907	8
3	36	18.015393715292	9
3	42	22.841248346454	10
3	48	26.309222129414	11
3	52	32.824685072132	12
3	56	37.48983577493	13
3	60	39.134654327775	14
3	64	40.724166844427	15
3	70	44.298187915282	16
3	76	47.532272353165	17
3	80	50.586196329415	18
3	84	51.888055805086	19
3	88	52.633991387609	20
3	92	54.136189704536	21
3	98	55.722883853027	22
3	102	56.272301025126	23
3	106	58.67918848199	24
3	110	63.5967898381	25
3	114	64.745280068876	26
3	118	69.608438314843	27
3	122	70.042560142531	28
3	126	72.378971012108	29
3	130	73.065187293116	30
3	134	76.136878828675	31
3	138	77.325525728477	32
3	142	77.70447914182	33
3	146	86.824236344988	34
3	150	89.240691096234	35
3	154	89.898392458594	36
3	158	91.895730633553	37
3	162	93.379641496383	38
3	168	96.545065185503	39
3	172	99.029557372907	40
3	176	99.548869971062	41

