version 3
run General-0-20230914-14:41:18-40291
attr configname General
attr datetime 20230914-14:41:18
attr datetimef 20230914-144118
attr experiment General
attr inifile omnetpp.ini
attr iterationvars ""
attr iterationvarsd ""
attr iterationvarsf ""
attr measurement ""
attr network Tictoc1
attr processid 40291
attr repetition 0
attr replication #0
attr resultdir results
attr runnumber 0
attr seedset 0
config network Tictoc1
config Tictoc1.tic.delayTime exponential(1s)
config Tictoc1.toc.delayTime exponential(0.1s)
config record-eventlog true
config sim-time-limit 30s

vector 0 Tictoc1.tic transmissionSignal:vector ETV
attr recordingmode vector
attr source transmissionSignal
attr title tx_t
vector 1 Tictoc1.toc receptionSignal:vector ETV
attr recordingmode vector
attr source receptionSignal
attr title rx_t
vector 2 Tictoc1.toc transmissionSignal:vector ETV
attr recordingmode vector
attr source transmissionSignal
attr title tx_t
vector 3 Tictoc1.tic receptionSignal:vector ETV
attr recordingmode vector
attr source receptionSignal
attr title rx_t
0	1	0.795874504566	1
0	5	2.341661301461	2
0	9	3.650844854139	3
0	13	4.833200527709	4
0	17	5.772145419799	5
0	21	7.108005363102	6
0	25	7.932037376357	7
0	29	10.390877712307	8
0	33	13.911628459144	9
0	37	14.627066178176	10
0	41	16.460906930624	11
0	45	17.580802163969	12
0	49	18.685623273591	13
0	53	21.533764560342	14
0	57	21.988286842234	15
0	61	22.320605667982	16
0	65	22.645492507212	17
0	69	24.678904984377	18
0	73	26.699706235882	19
0	77	28.95514357919	20
1	2	0.895874504566	1
1	6	2.441661301461	2
1	10	3.750844854139	3
1	14	4.933200527709	4
1	18	5.872145419799	5
1	22	7.208005363102	6
1	26	8.032037376357	7
1	30	10.490877712307	8
1	34	14.011628459144	9
1	38	14.727066178176	10
1	42	16.560906930624	11
1	46	17.680802163969	12
1	50	18.785623273591	13
1	54	21.633764560342	14
1	58	22.088286842234	15
1	62	22.420605667982	16
1	66	22.745492507212	17
1	70	24.778904984377	18
1	74	26.799706235882	19
1	78	29.05514357919	20
2	3	0.985730543414	1
2	7	2.627621722668	2
2	11	3.945999387727	3
2	15	5.121096933129	4
2	19	5.969846062438	5
2	23	7.256518179474	6
2	27	8.067353290271	7
2	31	10.496716179216	8
2	35	14.043464073228	9
2	39	14.792010813001	10
2	43	16.728128050656	11
2	47	17.746190420691	12
2	51	18.835510474493	13
2	55	21.814601486769	14
2	59	22.129444641858	15
2	63	22.525066918813	16
2	67	22.791417320938	17
2	71	25.093921977245	18
2	75	26.814829321248	19
2	79	29.259232800781	20
3	4	1.085730543414	1
3	8	2.727621722668	2
3	12	4.045999387727	3
3	16	5.221096933129	4
3	20	6.069846062438	5
3	24	7.356518179474	6
3	28	8.167353290271	7
3	32	10.596716179216	8
3	36	14.143464073228	9
3	40	14.892010813001	10
3	44	16.828128050656	11
3	48	17.846190420691	12
3	52	18.935510474493	13
3	56	21.914601486769	14
3	60	22.229444641858	15
3	64	22.625066918813	16
3	68	22.891417320938	17
3	72	25.193921977245	18
3	76	26.914829321248	19
3	80	29.359232800781	20

