version 3
run General-2-20231017-19:19:35-8222
attr configname General
attr datetime 20231017-19:19:35
attr datetimef 20231017-191935
attr experiment General
attr inifile omnetpp.ini
attr iterationvars ""
attr iterationvarsd ""
attr iterationvarsf ""
attr measurement ""
attr network Reliability
attr processid 8222
attr repetition 2
attr replication #2
attr resultdir results
attr runnumber 2
attr seedset 2
config network Reliability
config Reliability.node[*].transmissionTime "uniform(1s, 2s)"
config Reliability.node[*].delayTime "uniform(0.01s, 0.2s)"
config Reliability.node[*].lossProbability 0.0
config record-eventlog true
config sim-time-limit 240s
config repeat 5

vector 0 Reliability.node[0] txVector ETV
vector 1 Reliability.node[1] txVector ETV
vector 2 Reliability.node[1] rxVector ETV
vector 3 Reliability.node[3] txVector ETV
vector 4 Reliability.node[3] rxVector ETV
vector 5 Reliability.node[0] rxVector ETV
vector 6 Reliability.node[2] txVector ETV
vector 7 Reliability.node[2] rxVector ETV
vector 8 Reliability.node[4] txVector ETV
vector 9 Reliability.node[4] rxVector ETV
vector 10 Reliability.node[5] rxVector ETV
0	1	0.092839031499	1
0	1	0.092839031499	1
0	1	0.092839031499	1
0	13	1.118765259413	2
0	13	1.118765259413	2
0	13	1.118765259413	2
0	25	2.253345201742	3
0	25	2.253345201742	3
0	25	2.253345201742	3
0	37	3.349876123266	4
0	37	3.349876123266	4
0	37	3.349876123266	4
0	49	4.855112840207	5
0	49	4.855112840207	5
0	49	4.855112840207	5
0	61	6.282658804459	6
0	61	6.282658804459	6
0	61	6.282658804459	6
0	73	7.529836041405	7
0	73	7.529836041405	7
0	73	7.529836041405	7
0	85	8.575515006454	8
0	85	8.575515006454	8
0	85	8.575515006454	8
0	97	10.372919949954	9
0	97	10.372919949954	9
0	97	10.372919949954	9
0	109	11.485696165608	10
0	109	11.485696165608	10
0	109	11.485696165608	10
0	121	13.263704323461	11
0	121	13.263704323461	11
0	121	13.263704323461	11
0	133	15.177619800223	12
0	133	15.177619800223	12
0	133	15.177619800223	12
0	145	16.423430961342	13
0	145	16.423430961342	13
0	145	16.423430961342	13
0	157	17.709034693678	14
0	157	17.709034693678	14
0	157	17.709034693678	14
0	169	19.450789737999	15
0	169	19.450789737999	15
0	169	19.450789737999	15
0	181	20.516453408189	16
0	181	20.516453408189	16
0	181	20.516453408189	16
0	193	21.964468122478	17
0	193	21.964468122478	17
0	193	21.964468122478	17
0	205	23.741571126291	18
0	205	23.741571126291	18
0	205	23.741571126291	18
0	217	24.750019491203	19
0	217	24.750019491203	19
0	217	24.750019491203	19
0	229	26.452283731447	20
0	229	26.452283731447	20
0	229	26.452283731447	20
0	241	28.393399609737	21
0	241	28.393399609737	21
0	241	28.393399609737	21
0	253	29.599193287566	22
0	253	29.599193287566	22
0	253	29.599193287566	22
0	265	30.929940315913	23
0	265	30.929940315913	23
0	265	30.929940315913	23
0	277	32.402148904297	24
0	277	32.402148904297	24
0	277	32.402148904297	24
0	289	33.93849237591	25
0	289	33.93849237591	25
0	289	33.93849237591	25
0	301	35.651813938534	26
0	301	35.651813938534	26
0	301	35.651813938534	26
0	313	36.97556452292	27
0	313	36.97556452292	27
0	313	36.97556452292	27
0	325	38.598949239142	28
0	325	38.598949239142	28
0	325	38.598949239142	28
0	337	39.614005373576	29
0	337	39.614005373576	29
0	337	39.614005373576	29
0	349	41.495240674605	30
0	349	41.495240674605	30
0	349	41.495240674605	30
0	361	42.538730374555	31
0	361	42.538730374555	31
0	361	42.538730374555	31
0	373	43.601631910325	32
0	373	43.601631910325	32
0	373	43.601631910325	32
0	385	44.881900194119	33
0	385	44.881900194119	33
0	385	44.881900194119	33
0	397	46.730101603567	34
0	397	46.730101603567	34
0	397	46.730101603567	34
0	409	48.036466277455	35
0	409	48.036466277455	35
0	409	48.036466277455	35
0	421	49.231260605873	36
0	421	49.231260605873	36
0	421	49.231260605873	36
0	433	50.925499730063	37
0	433	50.925499730063	37
0	433	50.925499730063	37
0	445	51.944257876388	38
0	445	51.944257876388	38
0	445	51.944257876388	38
0	457	53.477098768595	39
0	457	53.477098768595	39
0	457	53.477098768595	39
0	469	55.313347968058	40
0	469	55.313347968058	40
0	469	55.313347968058	40
0	481	56.87677400398	41
0	481	56.87677400398	41
0	481	56.87677400398	41
0	493	58.621134895151	42
0	493	58.621134895151	42
0	493	58.621134895151	42
0	505	60.055244242325	43
0	505	60.055244242325	43
0	505	60.055244242325	43
0	517	61.934531197203	44
0	517	61.934531197203	44
0	517	61.934531197203	44
0	529	63.504507853435	45
0	529	63.504507853435	45
0	529	63.504507853435	45
0	541	65.158749787854	46
0	541	65.158749787854	46
0	541	65.158749787854	46
0	553	66.209806937044	47
0	553	66.209806937044	47
0	553	66.209806937044	47
0	565	67.982993502188	48
0	565	67.982993502188	48
0	565	67.982993502188	48
0	577	69.288910648804	49
0	577	69.288910648804	49
0	577	69.288910648804	49
0	589	70.302814471787	50
0	589	70.302814471787	50
0	589	70.302814471787	50
0	601	71.700224801218	51
0	601	71.700224801218	51
0	601	71.700224801218	51
0	613	73.127602265933	52
0	613	73.127602265933	52
0	613	73.127602265933	52
0	625	74.431188065111	53
0	625	74.431188065111	53
0	625	74.431188065111	53
0	637	75.753569860029	54
0	637	75.753569860029	54
0	637	75.753569860029	54
0	649	77.742797493952	55
0	649	77.742797493952	55
0	649	77.742797493952	55
0	661	79.322648218617	56
0	661	79.322648218617	56
0	661	79.322648218617	56
0	673	80.375398053339	57
0	673	80.375398053339	57
0	673	80.375398053339	57
0	685	81.954145755869	58
0	685	81.954145755869	58
0	685	81.954145755869	58
0	697	83.573778751556	59
0	697	83.573778751556	59
0	697	83.573778751556	59
0	709	84.868799548613	60
0	709	84.868799548613	60
0	709	84.868799548613	60
0	721	86.310814887302	61
0	721	86.310814887302	61
0	721	86.310814887302	61
0	733	87.511011229379	62
0	733	87.511011229379	62
0	733	87.511011229379	62
0	745	89.212353177851	63
0	745	89.212353177851	63
0	745	89.212353177851	63
0	757	90.843364591261	64
0	757	90.843364591261	64
0	757	90.843364591261	64
0	769	92.566490485349	65
0	769	92.566490485349	65
0	769	92.566490485349	65
0	781	94.05900196919	66
0	781	94.05900196919	66
0	781	94.05900196919	66
0	793	95.997432993741	67
0	793	95.997432993741	67
0	793	95.997432993741	67
0	805	97.071093990018	68
0	805	97.071093990018	68
0	805	97.071093990018	68
0	817	98.396984841691	69
0	817	98.396984841691	69
0	817	98.396984841691	69
0	829	99.866994431259	70
0	829	99.866994431259	70
0	829	99.866994431259	70
0	841	100.884135194139	71
0	841	100.884135194139	71
0	841	100.884135194139	71
0	853	102.252068505639	72
0	853	102.252068505639	72
0	853	102.252068505639	72
0	865	103.936549834924	73
0	865	103.936549834924	73
0	865	103.936549834924	73
0	877	105.44141144051	74
0	877	105.44141144051	74
0	877	105.44141144051	74
0	889	107.08568575165	75
0	889	107.08568575165	75
0	889	107.08568575165	75
0	901	108.139980237714	76
0	901	108.139980237714	76
0	901	108.139980237714	76
0	913	109.726564720522	77
0	913	109.726564720522	77
0	913	109.726564720522	77
0	925	111.003059345779	78
0	925	111.003059345779	78
0	925	111.003059345779	78
0	937	112.308112378481	79
0	937	112.308112378481	79
0	937	112.308112378481	79
0	949	113.930297624336	80
0	949	113.930297624336	80
0	949	113.930297624336	80
0	961	115.06736832137	81
0	961	115.06736832137	81
0	961	115.06736832137	81
0	973	116.096047070592	82
0	973	116.096047070592	82
0	973	116.096047070592	82
0	985	117.421315186207	83
0	985	117.421315186207	83
0	985	117.421315186207	83
0	997	118.623965691558	84
0	997	118.623965691558	84
0	997	118.623965691558	84
0	1009	120.524457267268	85
0	1009	120.524457267268	85
0	1009	120.524457267268	85
0	1021	122.004061501488	86
0	1021	122.004061501488	86
0	1021	122.004061501488	86
0	1033	123.158024894787	87
0	1033	123.158024894787	87
0	1033	123.158024894787	87
0	1045	125.072362055784	88
0	1045	125.072362055784	88
0	1045	125.072362055784	88
0	1057	126.468882520232	89
0	1057	126.468882520232	89
0	1057	126.468882520232	89
0	1069	127.733398116907	90
0	1069	127.733398116907	90
0	1069	127.733398116907	90
0	1081	128.91473363807	91
0	1081	128.91473363807	91
0	1081	128.91473363807	91
0	1093	130.846784236855	92
0	1093	130.846784236855	92
0	1093	130.846784236855	92
0	1105	131.999455195866	93
0	1105	131.999455195866	93
0	1105	131.999455195866	93
0	1117	133.371530566612	94
0	1117	133.371530566612	94
0	1117	133.371530566612	94
0	1129	134.999161641594	95
0	1129	134.999161641594	95
0	1129	134.999161641594	95
0	1141	136.931895112634	96
0	1141	136.931895112634	96
0	1141	136.931895112634	96
0	1153	138.69367329545	97
0	1153	138.69367329545	97
0	1153	138.69367329545	97
0	1165	140.409212870306	98
0	1165	140.409212870306	98
0	1165	140.409212870306	98
0	1177	142.039108914106	99
0	1177	142.039108914106	99
0	1177	142.039108914106	99
0	1189	143.499367363999	100
0	1189	143.499367363999	100
0	1189	143.499367363999	100
0	1201	144.761924244246	101
0	1201	144.761924244246	101
0	1201	144.761924244246	101
0	1213	146.267068811475	102
0	1213	146.267068811475	102
0	1213	146.267068811475	102
0	1225	147.54322401296	103
0	1225	147.54322401296	103
0	1225	147.54322401296	103
0	1237	148.794787963402	104
0	1237	148.794787963402	104
0	1237	148.794787963402	104
0	1249	150.156839217773	105
0	1249	150.156839217773	105
0	1249	150.156839217773	105
0	1261	152.131060075961	106
0	1261	152.131060075961	106
0	1261	152.131060075961	106
0	1273	153.422227064395	107
0	1273	153.422227064395	107
0	1273	153.422227064395	107
0	1285	155.037441138193	108
0	1285	155.037441138193	108
0	1285	155.037441138193	108
0	1297	156.298720819192	109
0	1297	156.298720819192	109
0	1297	156.298720819192	109
0	1309	157.643666155418	110
0	1309	157.643666155418	110
0	1309	157.643666155418	110
0	1321	159.492464130293	111
0	1321	159.492464130293	111
0	1321	159.492464130293	111
0	1333	160.84853245948	112
0	1333	160.84853245948	112
0	1333	160.84853245948	112
0	1345	161.948750040974	113
0	1345	161.948750040974	113
0	1345	161.948750040974	113
0	1357	163.7187854699	114
0	1357	163.7187854699	114
0	1357	163.7187854699	114
0	1369	165.045405132943	115
0	1369	165.045405132943	115
0	1369	165.045405132943	115
0	1381	166.105185067994	116
0	1381	166.105185067994	116
0	1381	166.105185067994	116
0	1393	167.474477649681	117
0	1393	167.474477649681	117
0	1393	167.474477649681	117
0	1405	169.137213994298	118
0	1405	169.137213994298	118
0	1405	169.137213994298	118
0	1417	170.388273301316	119
0	1417	170.388273301316	119
0	1417	170.388273301316	119
0	1428	171.407059944948	120
0	1428	171.407059944948	120
0	1428	171.407059944948	120
0	1441	173.238139137873	121
0	1441	173.238139137873	121
0	1441	173.238139137873	121
0	1453	174.792973869262	122
0	1453	174.792973869262	122
0	1453	174.792973869262	122
0	1465	176.770681190552	123
0	1465	176.770681190552	123
0	1465	176.770681190552	123
0	1477	178.387581167059	124
0	1477	178.387581167059	124
0	1477	178.387581167059	124
0	1489	179.452567117304	125
0	1489	179.452567117304	125
0	1489	179.452567117304	125
0	1501	181.227563573063	126
0	1501	181.227563573063	126
0	1501	181.227563573063	126
0	1513	182.928010753139	127
0	1513	182.928010753139	127
0	1513	182.928010753139	127
0	1525	184.879916667488	128
0	1525	184.879916667488	128
0	1525	184.879916667488	128
0	1537	185.974473131836	129
0	1537	185.974473131836	129
0	1537	185.974473131836	129
0	1549	187.032489212478	130
0	1549	187.032489212478	130
0	1549	187.032489212478	130
0	1561	188.670751232204	131
0	1561	188.670751232204	131
0	1561	188.670751232204	131
0	1573	190.249067795013	132
0	1573	190.249067795013	132
0	1573	190.249067795013	132
0	1585	191.253595920295	133
0	1585	191.253595920295	133
0	1585	191.253595920295	133
0	1597	192.416580531296	134
0	1597	192.416580531296	134
0	1597	192.416580531296	134
0	1609	194.136589734598	135
0	1609	194.136589734598	135
0	1609	194.136589734598	135
0	1621	195.523572556225	136
0	1621	195.523572556225	136
0	1621	195.523572556225	136
0	1633	196.73730471336	137
0	1633	196.73730471336	137
0	1633	196.73730471336	137
0	1645	198.040875831868	138
0	1645	198.040875831868	138
0	1645	198.040875831868	138
0	1657	199.115391611604	139
0	1657	199.115391611604	139
0	1657	199.115391611604	139
0	1669	200.162244147871	140
0	1669	200.162244147871	140
0	1669	200.162244147871	140
0	1681	202.072172090894	141
0	1681	202.072172090894	141
0	1681	202.072172090894	141
0	1693	203.131792463845	142
0	1693	203.131792463845	142
0	1693	203.131792463845	142
0	1705	204.477779576339	143
0	1705	204.477779576339	143
0	1705	204.477779576339	143
0	1717	206.067010823189	144
0	1717	206.067010823189	144
0	1717	206.067010823189	144
0	1729	207.152914772992	145
0	1729	207.152914772992	145
0	1729	207.152914772992	145
0	1741	208.841656239488	146
0	1741	208.841656239488	146
0	1741	208.841656239488	146
0	1753	209.898971328995	147
0	1753	209.898971328995	147
0	1753	209.898971328995	147
0	1765	211.889225674811	148
0	1765	211.889225674811	148
0	1765	211.889225674811	148
0	1777	213.123196841003	149
0	1777	213.123196841003	149
0	1777	213.123196841003	149
0	1789	214.912036917191	150
0	1789	214.912036917191	150
0	1789	214.912036917191	150
0	1801	216.554198018527	151
0	1801	216.554198018527	151
0	1801	216.554198018527	151
0	1813	218.233029159271	152
0	1813	218.233029159271	152
0	1813	218.233029159271	152
0	1825	219.539671031079	153
0	1825	219.539671031079	153
0	1825	219.539671031079	153
0	1837	220.906158229123	154
0	1837	220.906158229123	154
0	1837	220.906158229123	154
0	1849	221.911291064947	155
0	1849	221.911291064947	155
0	1849	221.911291064947	155
0	1861	223.53142675317	156
0	1861	223.53142675317	156
0	1861	223.53142675317	156
0	1873	225.194857849294	157
0	1873	225.194857849294	157
0	1873	225.194857849294	157
0	1885	226.286591372007	158
0	1885	226.286591372007	158
0	1885	226.286591372007	158
0	1897	228.159128154182	159
0	1897	228.159128154182	159
0	1897	228.159128154182	159
0	1909	229.627468467244	160
0	1909	229.627468467244	160
0	1909	229.627468467244	160
0	1921	231.550104646963	161
0	1921	231.550104646963	161
0	1921	231.550104646963	161
0	1933	232.98790665811	162
0	1933	232.98790665811	162
0	1933	232.98790665811	162
0	1945	234.340125310254	163
0	1945	234.340125310254	163
0	1945	234.340125310254	163
0	1957	235.772348509189	164
0	1957	235.772348509189	164
0	1957	235.772348509189	164
0	1969	236.802707130574	165
0	1969	236.802707130574	165
0	1969	236.802707130574	165
0	1981	238.272537630536	166
0	1981	238.272537630536	166
0	1981	238.272537630536	166
0	1993	239.819043263579	167
0	1993	239.819043263579	167
0	1993	239.819043263579	167
1	2	0.238004626979	1
1	2	0.238004626979	2
1	2	0.238004626979	3
1	14	1.35854019847	4
1	14	1.35854019847	5
1	14	1.35854019847	6
1	26	2.385421933055	7
1	26	2.385421933055	8
1	26	2.385421933055	9
1	38	3.610563174437	10
1	38	3.610563174437	11
1	38	3.610563174437	12
1	50	5.014272142704	13
1	50	5.014272142704	14
1	50	5.014272142704	15
1	62	6.534518772929	16
1	62	6.534518772929	17
1	62	6.534518772929	18
1	74	7.784602741191	19
1	74	7.784602741191	20
1	74	7.784602741191	21
1	86	8.753108194991	22
1	86	8.753108194991	23
1	86	8.753108194991	24
1	98	10.547883154966	25
1	98	10.547883154966	26
1	98	10.547883154966	27
1	110	11.779671374343	28
1	110	11.779671374343	29
1	110	11.779671374343	30
1	122	13.54378201382	31
1	122	13.54378201382	32
1	122	13.54378201382	33
1	134	15.340333251115	34
1	134	15.340333251115	35
1	134	15.340333251115	36
1	146	16.634096984753	37
1	146	16.634096984753	38
1	146	16.634096984753	39
1	158	17.955900818246	40
1	158	17.955900818246	41
1	158	17.955900818246	42
1	170	19.716488159345	43
1	170	19.716488159345	44
1	170	19.716488159345	45
1	182	20.709202365288	46
1	182	20.709202365288	47
1	182	20.709202365288	48
1	194	22.145345922915	49
1	194	22.145345922915	50
1	194	22.145345922915	51
1	206	23.941923530762	52
1	206	23.941923530762	53
1	206	23.941923530762	54
1	218	24.943883330121	55
1	218	24.943883330121	56
1	218	24.943883330121	57
1	230	26.693881316692	58
1	230	26.693881316692	59
1	230	26.693881316692	60
1	242	28.565310400366	61
1	242	28.565310400366	62
1	242	28.565310400366	63
1	254	29.716873047084	64
1	254	29.716873047084	65
1	254	29.716873047084	66
1	266	31.074650719596	67
1	266	31.074650719596	68
1	266	31.074650719596	69
1	278	32.586434014083	70
1	278	32.586434014083	71
1	278	32.586434014083	72
1	290	34.112388040386	73
1	290	34.112388040386	74
1	290	34.112388040386	75
1	302	35.831254832083	76
1	302	35.831254832083	77
1	302	35.831254832083	78
1	314	37.12509243014	79
1	314	37.12509243014	80
1	314	37.12509243014	81
1	326	38.736118332783	82
1	326	38.736118332783	83
1	326	38.736118332783	84
1	338	39.882986644166	85
1	338	39.882986644166	86
1	338	39.882986644166	87
1	350	41.739149019047	88
1	350	41.739149019047	89
1	350	41.739149019047	90
1	362	42.696847273464	91
1	362	42.696847273464	92
1	362	42.696847273464	93
1	374	43.881948816398	94
1	374	43.881948816398	95
1	374	43.881948816398	96
1	386	45.010893532894	97
1	386	45.010893532894	98
1	386	45.010893532894	99
1	398	46.931439015751	100
1	398	46.931439015751	101
1	398	46.931439015751	102
1	410	48.268365122593	103
1	410	48.268365122593	104
1	410	48.268365122593	105
1	422	49.505036132936	106
1	422	49.505036132936	107
1	422	49.505036132936	108
1	434	51.108632429272	109
1	434	51.108632429272	110
1	434	51.108632429272	111
1	446	52.079946588775	112
1	446	52.079946588775	113
1	446	52.079946588775	114
1	458	53.705651082862	115
1	458	53.705651082862	116
1	458	53.705651082862	117
1	470	55.613266225321	118
1	470	55.613266225321	119
1	470	55.613266225321	120
1	482	57.015818811766	121
1	482	57.015818811766	122
1	482	57.015818811766	123
1	494	58.88502229216	124
1	494	58.88502229216	125
1	494	58.88502229216	126
1	506	60.296444425764	127
1	506	60.296444425764	128
1	506	60.296444425764	129
1	518	62.19804487247	130
1	518	62.19804487247	131
1	518	62.19804487247	132
1	530	63.63987387608	133
1	530	63.63987387608	134
1	530	63.63987387608	135
1	542	65.356764890347	136
1	542	65.356764890347	137
1	542	65.356764890347	138
1	554	66.394967515589	139
1	554	66.394967515589	140
1	554	66.394967515589	141
1	566	68.27533887953	142
1	566	68.27533887953	143
1	566	68.27533887953	144
1	578	69.460272410544	145
1	578	69.460272410544	146
1	578	69.460272410544	147
1	590	70.585322184786	148
1	590	70.585322184786	149
1	590	70.585322184786	150
1	602	71.854957778386	151
1	602	71.854957778386	152
1	602	71.854957778386	153
1	614	73.376403922277	154
1	614	73.376403922277	155
1	614	73.376403922277	156
1	626	74.619433501881	157
1	626	74.619433501881	158
1	626	74.619433501881	159
1	638	76.029757867711	160
1	638	76.029757867711	161
1	638	76.029757867711	162
1	650	78.03652977219	163
1	650	78.03652977219	164
1	650	78.03652977219	165
1	662	79.492471725858	166
1	662	79.492471725858	167
1	662	79.492471725858	168
1	674	80.5090815788	169
1	674	80.5090815788	170
1	674	80.5090815788	171
1	686	82.093295705855	172
1	686	82.093295705855	173
1	686	82.093295705855	174
1	698	83.735978584565	175
1	698	83.735978584565	176
1	698	83.735978584565	177
1	710	85.022375679478	178
1	710	85.022375679478	179
1	710	85.022375679478	180
1	722	86.604762598249	181
1	722	86.604762598249	182
1	722	86.604762598249	183
1	734	87.770403338364	184
1	734	87.770403338364	185
1	734	87.770403338364	186
1	746	89.365729063868	187
1	746	89.365729063868	188
1	746	89.365729063868	189
1	758	91.048402209026	190
1	758	91.048402209026	191
1	758	91.048402209026	192
1	770	92.788182220298	193
1	770	92.788182220298	194
1	770	92.788182220298	195
1	782	94.187693523734	196
1	782	94.187693523734	197
1	782	94.187693523734	198
1	794	96.280774585046	199
1	794	96.280774585046	200
1	794	96.280774585046	201
1	806	97.183917111009	202
1	806	97.183917111009	203
1	806	97.183917111009	204
1	818	98.547447011727	205
1	818	98.547447011727	206
1	818	98.547447011727	207
1	830	100.050326550899	208
1	830	100.050326550899	209
1	830	100.050326550899	210
1	842	101.0817797033	211
1	842	101.0817797033	212
1	842	101.0817797033	213
1	854	102.496151591249	214
1	854	102.496151591249	215
1	854	102.496151591249	216
1	866	104.082809518411	217
1	866	104.082809518411	218
1	866	104.082809518411	219
1	878	105.652270406387	220
1	878	105.652270406387	221
1	878	105.652270406387	222
1	890	107.239506719396	223
1	890	107.239506719396	224
1	890	107.239506719396	225
1	902	108.276426073396	226
1	902	108.276426073396	227
1	902	108.276426073396	228
1	914	109.976910146451	229
1	914	109.976910146451	230
1	914	109.976910146451	231
1	926	111.22435682839	232
1	926	111.22435682839	233
1	926	111.22435682839	234
1	938	112.421099581404	235
1	938	112.421099581404	236
1	938	112.421099581404	237
1	950	114.131798411044	238
1	950	114.131798411044	239
1	950	114.131798411044	240
1	962	115.335057778449	241
1	962	115.335057778449	242
1	962	115.335057778449	243
1	974	116.353330366614	244
1	974	116.353330366614	245
1	974	116.353330366614	246
1	986	117.572342690839	247
1	986	117.572342690839	248
1	986	117.572342690839	249
1	998	118.739098714594	250
1	998	118.739098714594	251
1	998	118.739098714594	252
1	1010	120.651853726563	253
1	1010	120.651853726563	254
1	1010	120.651853726563	255
1	1022	122.279245754884	256
1	1022	122.279245754884	257
1	1022	122.279245754884	258
1	1034	123.369896035663	259
1	1034	123.369896035663	260
1	1034	123.369896035663	261
1	1046	125.197576480646	262
1	1046	125.197576480646	263
1	1046	125.197576480646	264
1	1058	126.578956295471	265
1	1058	126.578956295471	266
1	1058	126.578956295471	267
1	1070	127.881562647357	268
1	1070	127.881562647357	269
1	1070	127.881562647357	270
1	1082	129.098411094165	271
1	1082	129.098411094165	272
1	1082	129.098411094165	273
1	1094	131.07074419545	274
1	1094	131.07074419545	275
1	1094	131.07074419545	276
1	1106	132.195796807907	277
1	1106	132.195796807907	278
1	1106	132.195796807907	279
1	1118	133.611005803447	280
1	1118	133.611005803447	281
1	1118	133.611005803447	282
1	1130	135.296923566422	283
1	1130	135.296923566422	284
1	1130	135.296923566422	285
1	1142	137.077726195547	286
1	1142	137.077726195547	287
1	1142	137.077726195547	288
1	1154	138.825876387015	289
1	1154	138.825876387015	290
1	1154	138.825876387015	291
1	1166	140.555926883616	292
1	1166	140.555926883616	293
1	1166	140.555926883616	294
1	1178	142.315483836142	295
1	1178	142.315483836142	296
1	1178	142.315483836142	297
1	1190	143.618266055436	298
1	1190	143.618266055436	299
1	1190	143.618266055436	300
1	1202	145.025391137264	301
1	1202	145.025391137264	302
1	1202	145.025391137264	303
1	1214	146.399560861221	304
1	1214	146.399560861221	305
1	1214	146.399560861221	306
1	1226	147.661723578776	307
1	1226	147.661723578776	308
1	1226	147.661723578776	309
1	1238	148.989554910428	310
1	1238	148.989554910428	311
1	1238	148.989554910428	312
1	1250	150.407581332306	313
1	1250	150.407581332306	314
1	1250	150.407581332306	315
1	1262	152.312612544197	316
1	1262	152.312612544197	317
1	1262	152.312612544197	318
1	1274	153.669795729332	319
1	1274	153.669795729332	320
1	1274	153.669795729332	321
1	1286	155.280467226644	322
1	1286	155.280467226644	323
1	1286	155.280467226644	324
1	1298	156.580102515934	325
1	1298	156.580102515934	326
1	1298	156.580102515934	327
1	1310	157.832697515986	328
1	1310	157.832697515986	329
1	1310	157.832697515986	330
1	1322	159.668192490994	331
1	1322	159.668192490994	332
1	1322	159.668192490994	333
1	1334	160.965100542209	334
1	1334	160.965100542209	335
1	1334	160.965100542209	336
1	1346	162.18463038324	337
1	1346	162.18463038324	338
1	1346	162.18463038324	339
1	1358	163.987428934418	340
1	1358	163.987428934418	341
1	1358	163.987428934418	342
1	1370	165.170449342653	343
1	1370	165.170449342653	344
1	1370	165.170449342653	345
1	1382	166.318984042514	346
1	1382	166.318984042514	347
1	1382	166.318984042514	348
1	1394	167.735679378142	349
1	1394	167.735679378142	350
1	1394	167.735679378142	351
1	1406	169.353570605145	352
1	1406	169.353570605145	353
1	1406	169.353570605145	354
1	1418	170.628414119855	355
1	1418	170.628414119855	356
1	1418	170.628414119855	357
1	1430	171.669271547201	358
1	1430	171.669271547201	359
1	1430	171.669271547201	360
1	1442	173.362361987255	361
1	1442	173.362361987255	362
1	1442	173.362361987255	363
1	1454	175.036396694978	364
1	1454	175.036396694978	365
1	1454	175.036396694978	366
1	1466	177.056733925418	367
1	1466	177.056733925418	368
1	1466	177.056733925418	369
1	1478	178.562208214389	370
1	1478	178.562208214389	371
1	1478	178.562208214389	372
1	1490	179.658708529518	373
1	1490	179.658708529518	374
1	1490	179.658708529518	375
1	1502	181.415857272545	376
1	1502	181.415857272545	377
1	1502	181.415857272545	378
1	1514	183.066382029773	379
1	1514	183.066382029773	380
1	1514	183.066382029773	381
1	1526	185.045283857395	382
1	1526	185.045283857395	383
1	1526	185.045283857395	384
1	1538	186.16639962996	385
1	1538	186.16639962996	386
1	1538	186.16639962996	387
1	1550	187.317413317339	388
1	1550	187.317413317339	389
1	1550	187.317413317339	390
1	1562	188.887875188025	391
1	1562	188.887875188025	392
1	1562	188.887875188025	393
1	1574	190.363468308192	394
1	1574	190.363468308192	395
1	1574	190.363468308192	396
1	1586	191.54811896708	397
1	1586	191.54811896708	398
1	1586	191.54811896708	399
1	1598	192.693449214892	400
1	1598	192.693449214892	401
1	1598	192.693449214892	402
1	1610	194.268719273882	403
1	1610	194.268719273882	404
1	1610	194.268719273882	405
1	1622	195.802689108185	406
1	1622	195.802689108185	407
1	1622	195.802689108185	408
1	1634	196.991523192394	409
1	1634	196.991523192394	410
1	1634	196.991523192394	411
1	1646	198.274374887771	412
1	1646	198.274374887771	413
1	1646	198.274374887771	414
1	1658	199.395868817009	415
1	1658	199.395868817009	416
1	1658	199.395868817009	417
1	1670	200.426455871024	418
1	1670	200.426455871024	419
1	1670	200.426455871024	420
1	1682	202.255898552056	421
1	1682	202.255898552056	422
1	1682	202.255898552056	423
1	1694	203.267874435122	424
1	1694	203.267874435122	425
1	1694	203.267874435122	426
1	1706	204.59318326827	427
1	1706	204.59318326827	428
1	1706	204.59318326827	429
1	1718	206.292022430856	430
1	1718	206.292022430856	431
1	1718	206.292022430856	432
1	1730	207.351216427217	433
1	1730	207.351216427217	434
1	1730	207.351216427217	435
1	1742	209.070021907393	436
1	1742	209.070021907393	437
1	1742	209.070021907393	438
1	1754	210.112764162243	439
1	1754	210.112764162243	440
1	1754	210.112764162243	441
1	1766	212.018610178124	442
1	1766	212.018610178124	443
1	1766	212.018610178124	444
1	1778	213.23759183516	445
1	1778	213.23759183516	446
1	1778	213.23759183516	447
1	1790	215.191676121901	448
1	1790	215.191676121901	449
1	1790	215.191676121901	450
1	1802	216.805004328732	451
1	1802	216.805004328732	452
1	1802	216.805004328732	453
1	1814	218.421155459605	454
1	1814	218.421155459605	455
1	1814	218.421155459605	456
1	1826	219.718804076897	457
1	1826	219.718804076897	458
1	1826	219.718804076897	459
1	1838	221.128708966054	460
1	1838	221.128708966054	461
1	1838	221.128708966054	462
1	1850	222.045995149315	463
1	1850	222.045995149315	464
1	1850	222.045995149315	465
1	1862	223.75074613877	466
1	1862	223.75074613877	467
1	1862	223.75074613877	468
1	1874	225.322334557503	469
1	1874	225.322334557503	470
1	1874	225.322334557503	471
1	1886	226.537713759683	472
1	1886	226.537713759683	473
1	1886	226.537713759683	474
1	1898	228.319439028198	475
1	1898	228.319439028198	476
1	1898	228.319439028198	477
1	1910	229.8581165168	478
1	1910	229.8581165168	479
1	1910	229.8581165168	480
1	1922	231.674312732856	481
1	1922	231.674312732856	482
1	1922	231.674312732856	483
1	1934	233.101776268672	484
1	1934	233.101776268672	485
1	1934	233.101776268672	486
1	1946	234.478861156444	487
1	1946	234.478861156444	488
1	1946	234.478861156444	489
1	1958	236.027332977352	490
1	1958	236.027332977352	491
1	1958	236.027332977352	492
1	1970	237.014824691958	493
1	1970	237.014824691958	494
1	1970	237.014824691958	495
1	1982	238.494900125005	496
1	1982	238.494900125005	497
1	1982	238.494900125005	498
1	1994	239.937696494337	499
1	1994	239.937696494337	500
1	1994	239.937696494337	501
2	2	0.238004626979	1
2	7	0.620585763984	2
2	8	0.676956683889	3
2	14	1.35854019847	4
2	19	1.76279745044	5
2	21	1.783936624147	6
2	26	2.385421933055	7
2	31	2.741485670719	8
2	32	2.760661720769	9
2	38	3.610563174437	10
2	42	3.969740928095	11
2	44	4.114497235708	12
2	50	5.014272142704	13
2	55	5.403235257193	14
2	56	5.485217937971	15
2	62	6.534518772929	16
2	66	7.018868812247	17
2	67	7.057695907426	18
2	74	7.784602741191	19
2	78	8.184220259002	20
2	80	8.244924447678	21
2	86	8.753108194991	22
2	90	9.110925321613	23
2	91	9.157447775096	24
2	98	10.547883154966	25
2	102	10.91612067267	26
2	104	10.991531266444	27
2	110	11.779671374343	28
2	114	12.204077816306	29
2	117	12.268001128314	30
2	122	13.54378201382	31
2	126	13.874020535378	32
2	128	14.06800936258	33
2	134	15.340333251115	34
2	139	15.633415307661	35
2	143	15.768022694677	36
2	146	16.634096984753	37
2	151	16.967786316745	38
2	152	17.01968146538	39
2	158	17.955900818246	40
2	162	18.300259598181	41
2	166	18.461568290984	42
2	170	19.716488159345	43
2	176	20.090058895032	44
2	178	20.178057430062	45
2	182	20.709202365288	46
2	187	21.151355937153	47
2	189	21.194985877843	48
2	194	22.145345922915	49
2	199	22.65575888174	50
2	200	22.689319026176	51
2	206	23.941923530762	52
2	211	24.386432427626	53
2	212	24.39442828691	54
2	218	24.943883330121	55
2	222	25.277975168565	56
2	224	25.339428714277	57
2	230	26.693881316692	58
2	235	27.004705996058	59
2	236	27.041813459896	60
2	242	28.565310400366	61
2	246	28.871252850201	62
2	248	29.02062498519	63
2	254	29.716873047084	64
2	259	30.08374099605	65
2	262	30.177944360727	66
2	266	31.074650719596	67
2	271	31.480998887852	68
2	275	31.576352897442	69
2	278	32.586434014083	70
2	282	32.854876863239	71
2	286	33.027646059724	72
2	290	34.112388040386	73
2	295	34.467898805272	74
2	296	34.535863966034	75
2	302	35.831254832083	76
2	306	36.297655537403	77
2	309	36.37969264331	78
2	314	37.12509243014	79
2	319	37.421313939693	80
2	321	37.524957138507	81
2	326	38.736118332783	82
2	330	39.032506351641	83
2	332	39.1730267409	84
2	338	39.882986644166	85
2	344	40.292396671536	86
2	346	40.329762636434	87
2	350	41.739149019047	88
2	355	42.08214136759	89
2	356	42.140147027296	90
2	362	42.696847273464	91
2	366	43.044721929972	92
2	367	43.102274320458	93
2	374	43.881948816398	94
2	379	44.38003078166	95
2	381	44.4266310984	96
2	386	45.010893532894	97
2	388	45.241225082043	98