version 3
run General-0-20231019-15:54:19-24860
attr configname General
attr datetime 20231019-15:54:19
attr datetimef 20231019-155419
attr experiment General
attr inifile omnetpp.ini
attr iterationvars ""
attr iterationvarsd ""
attr iterationvarsf ""
attr measurement ""
attr network Reliability
attr processid 24860
attr repetition 0
attr replication #0
attr resultdir results
attr runnumber 0
attr seedset 0
config network Reliability
config Reliability.node[*].transmissionTime "uniform(1s, 2s)"
config Reliability.node[*].delayTime "uniform(0.01s, 0.2s)"
config Reliability.node[*].lossProbability 0.2
config record-eventlog true
config sim-time-limit 240s
config repeat 5

vector 0 Reliability.node[0] txVector ETV
vector 1 Reliability.node[1] txVector ETV
vector 2 Reliability.node[1] rxVector ETV
vector 3 Reliability.node[3] txVector ETV
vector 4 Reliability.node[3] rxVector ETV
vector 5 Reliability.node[0] rxVector ETV
vector 6 Reliability.node[2] txVector ETV
vector 7 Reliability.node[2] rxVector ETV
vector 8 Reliability.node[4] txVector ETV
vector 9 Reliability.node[4] rxVector ETV
vector 10 Reliability.node[5] rxVector ETV
vector 11 Reliability.node[5] e2eVector ETV
0	1	0.114274565438	1
0	1	0.114274565438	1
0	1	0.114274565438	1
0	13	1.82946393041	2
0	13	1.82946393041	2
0	13	1.82946393041	2
0	25	3.222248723573	3
0	25	3.222248723573	3
0	25	3.222248723573	3
0	37	4.340523147332	4
0	37	4.340523147332	4
0	37	4.340523147332	4
0	49	5.490198011119	5
0	49	5.490198011119	5
0	49	5.490198011119	5
0	61	6.619124309467	6
0	61	6.619124309467	6
0	61	6.619124309467	6
0	73	8.093821814591	7
0	73	8.093821814591	7
0	73	8.093821814591	7
0	85	10.070281279813	8
0	85	10.070281279813	8
0	85	10.070281279813	8
0	87	11.988516752682	9
0	87	11.988516752682	9
0	87	11.988516752682	9
0	99	13.680988872032	10
0	99	13.680988872032	10
0	99	13.680988872032	10
0	101	14.945719036348	11
0	101	14.945719036348	11
0	101	14.945719036348	11
0	106	16.532231969368	12
0	106	16.532231969368	12
0	106	16.532231969368	12
0	118	18.101850373745	13
0	118	18.101850373745	13
0	118	18.101850373745	13
0	120	19.801329651224	14
0	120	19.801329651224	14
0	120	19.801329651224	14
0	132	21.568353353842	15
0	132	21.568353353842	15
0	132	21.568353353842	15
0	144	23.174746570718	16
0	144	23.174746570718	16
0	144	23.174746570718	16
0	154	24.208371664472	17
0	154	24.208371664472	17
0	154	24.208371664472	17
0	168	26.127854277454	18
0	168	26.127854277454	18
0	168	26.127854277454	18
0	180	28.110429234178	19
0	180	28.110429234178	19
0	180	28.110429234178	19
0	190	29.164767220224	20
0	190	29.164767220224	20
0	190	29.164767220224	20
0	202	30.664793514021	21
0	202	30.664793514021	21
0	202	30.664793514021	21
0	214	31.850986519436	22
0	214	31.850986519436	22
0	214	31.850986519436	22
0	216	33.393485296358	23
0	216	33.393485296358	23
0	216	33.393485296358	23
0	228	34.460734927169	24
0	228	34.460734927169	24
0	228	34.460734927169	24
0	238	36.365159904425	25
0	238	36.365159904425	25
0	238	36.365159904425	25
0	250	38.052648177211	26
0	250	38.052648177211	26
0	250	38.052648177211	26
0	262	39.267528913756	27
0	262	39.267528913756	27
0	262	39.267528913756	27
0	264	40.755585198364	28
0	264	40.755585198364	28
0	264	40.755585198364	28
0	276	42.477665859115	29
0	276	42.477665859115	29
0	276	42.477665859115	29
0	288	43.494095490387	30
0	288	43.494095490387	30
0	288	43.494095490387	30
0	300	44.949264307579	31
0	300	44.949264307579	31
0	300	44.949264307579	31
0	312	46.097405167602	32
0	312	46.097405167602	32
0	312	46.097405167602	32
0	324	47.503525655091	33
0	324	47.503525655091	33
0	324	47.503525655091	33
0	326	49.229120023156	34
0	326	49.229120023156	34
0	326	49.229120023156	34
0	331	50.762585699398	35
0	331	50.762585699398	35
0	331	50.762585699398	35
0	343	52.434633502344	36
0	343	52.434633502344	36
0	343	52.434633502344	36
0	355	53.959226118241	37
0	355	53.959226118241	37
0	355	53.959226118241	37
0	357	55.333039257749	38
0	357	55.333039257749	38
0	357	55.333039257749	38
0	368	56.342727431403	39
0	368	56.342727431403	39
0	368	56.342727431403	39
0	381	57.516839380217	40
0	381	57.516839380217	40
0	381	57.516839380217	40
0	393	59.095761767662	41
0	393	59.095761767662	41
0	393	59.095761767662	41
0	405	60.731822824179	42
0	405	60.731822824179	42
0	405	60.731822824179	42
0	410	61.88945509524	43
0	410	61.88945509524	43
0	410	61.88945509524	43
0	422	63.287889354005	44
0	422	63.287889354005	44
0	422	63.287889354005	44
0	434	64.824163891449	45
0	434	64.824163891449	45
0	434	64.824163891449	45
0	445	65.892237967653	46
0	445	65.892237967653	46
0	445	65.892237967653	46
0	458	67.05519239123	47
0	458	67.05519239123	47
0	458	67.05519239123	47
0	470	68.479281378286	48
0	470	68.479281378286	48
0	470	68.479281378286	48
0	482	69.73651486177	49
0	482	69.73651486177	49
0	482	69.73651486177	49
0	484	71.467223964473	50
0	484	71.467223964473	50
0	484	71.467223964473	50
0	496	73.098349509835	51
0	496	73.098349509835	51
0	496	73.098349509835	51
0	508	75.040933112455	52
0	508	75.040933112455	52
0	508	75.040933112455	52
0	520	76.488448981502	53
0	520	76.488448981502	53
0	520	76.488448981502	53
0	532	78.040527251623	54
0	532	78.040527251623	54
0	532	78.040527251623	54
0	544	80.007648375891	55
0	544	80.007648375891	55
0	544	80.007648375891	55
0	556	81.349346489487	56
0	556	81.349346489487	56
0	556	81.349346489487	56
0	568	82.852056033984	57
0	568	82.852056033984	57
0	568	82.852056033984	57
0	580	83.854759248281	58
0	580	83.854759248281	58
0	580	83.854759248281	58
0	592	85.397216254454	59
0	592	85.397216254454	59
0	592	85.397216254454	59
0	604	87.26900199133	60
0	604	87.26900199133	60
0	604	87.26900199133	60
0	616	88.831785115488	61
0	616	88.831785115488	61
0	616	88.831785115488	61
0	628	89.871400638325	62
0	628	89.871400638325	62
0	628	89.871400638325	62
0	640	91.520478972774	63
0	640	91.520478972774	63
0	640	91.520478972774	63
0	652	92.888406552682	64
0	652	92.888406552682	64
0	652	92.888406552682	64
0	664	94.336549382964	65
0	664	94.336549382964	65
0	664	94.336549382964	65
0	676	95.768830865929	66
0	676	95.768830865929	66
0	676	95.768830865929	66
0	688	97.549762001336	67
0	688	97.549762001336	67
0	688	97.549762001336	67
0	697	98.608296923647	68
0	697	98.608296923647	68
0	697	98.608296923647	68
0	709	100.066555932937	69
0	709	100.066555932937	69
0	709	100.066555932937	69
0	721	101.719977089278	70
0	721	101.719977089278	70
0	721	101.719977089278	70
0	733	103.385654819039	71
0	733	103.385654819039	71
0	733	103.385654819039	71
0	743	104.90380462802	72
0	743	104.90380462802	72
0	743	104.90380462802	72
0	745	106.417564362828	73
0	745	106.417564362828	73
0	745	106.417564362828	73
0	757	108.273840545984	74
0	757	108.273840545984	74
0	757	108.273840545984	74
0	769	109.66216014822	75
0	769	109.66216014822	75
0	769	109.66216014822	75
0	781	111.027071982929	76
0	781	111.027071982929	76
0	781	111.027071982929	76
0	793	112.606083187116	77
0	793	112.606083187116	77
0	793	112.606083187116	77
0	795	114.483481982331	78
0	795	114.483481982331	78
0	795	114.483481982331	78
0	797	115.909427933469	79
0	797	115.909427933469	79
0	797	115.909427933469	79
0	809	117.157112951697	80
0	809	117.157112951697	80
0	809	117.157112951697	80
0	821	118.8425903342	81
0	821	118.8425903342	81
0	821	118.8425903342	81
0	833	120.269494693567	82
0	833	120.269494693567	82
0	833	120.269494693567	82
0	835	122.204796583931	83
0	835	122.204796583931	83
0	835	122.204796583931	83
0	847	124.180680454084	84
0	847	124.180680454084	84
0	847	124.180680454084	84
0	859	125.717916105482	85
0	859	125.717916105482	85
0	859	125.717916105482	85
0	871	127.120942108407	86
0	871	127.120942108407	86
0	871	127.120942108407	86
0	873	128.278164208009	87
0	873	128.278164208009	87
0	873	128.278164208009	87
0	880	129.883876162422	88
0	880	129.883876162422	88
0	880	129.883876162422	88
0	882	130.963937256326	89
0	882	130.963937256326	89
0	882	130.963937256326	89
0	894	132.256825821548	90
0	894	132.256825821548	90
0	894	132.256825821548	90
0	899	133.61403324183	91
0	899	133.61403324183	91
0	899	133.61403324183	91
0	901	135.533540652673	92
0	901	135.533540652673	92
0	901	135.533540652673	92
0	903	137.418747928533	93
0	903	137.418747928533	93
0	903	137.418747928533	93
0	915	138.902266058912	94
0	915	138.902266058912	94
0	915	138.902266058912	94
0	927	140.540121811516	95
0	927	140.540121811516	95
0	927	140.540121811516	95
0	929	142.267668807487	96
0	929	142.267668807487	96
0	929	142.267668807487	96
0	941	143.788543602292	97
0	941	143.788543602292	97
0	941	143.788543602292	97
0	943	145.356389606678	98
0	943	145.356389606678	98
0	943	145.356389606678	98
0	955	146.441465684519	99
0	955	146.441465684519	99
0	955	146.441465684519	99
0	967	147.561585860866	100
0	967	147.561585860866	100
0	967	147.561585860866	100
0	979	149.550334862507	101
0	979	149.550334862507	101
0	979	149.550334862507	101
0	991	150.76720511618	102
0	991	150.76720511618	102
0	991	150.76720511618	102
0	1003	152.630681339492	103
0	1003	152.630681339492	103
0	1003	152.630681339492	103
0	1015	153.793039283789	104
0	1015	153.793039283789	104
0	1015	153.793039283789	104
0	1027	155.647154166903	105
0	1027	155.647154166903	105
0	1027	155.647154166903	105
0	1039	156.844413638888	106
0	1039	156.844413638888	106
0	1039	156.844413638888	106
0	1046	158.473790346952	107
0	1046	158.473790346952	107
0	1046	158.473790346952	107
0	1058	159.980653303051	108
0	1058	159.980653303051	108
0	1058	159.980653303051	108
0	1070	161.55474519737	109
0	1070	161.55474519737	109
0	1070	161.55474519737	109
0	1082	163.044203830025	110
0	1082	163.044203830025	110
0	1082	163.044203830025	110
0	1094	164.27658697877	111
0	1094	164.27658697877	111
0	1094	164.27658697877	111
0	1096	165.802395937107	112
0	1096	165.802395937107	112
0	1096	165.802395937107	112
0	1108	167.338197857914	113
0	1108	167.338197857914	113
0	1108	167.338197857914	113
0	1120	168.821950722793	114
0	1120	168.821950722793	114
0	1120	168.821950722793	114
0	1130	170.37200522989	115
0	1130	170.37200522989	115
0	1130	170.37200522989	115
0	1142	171.557902827933	116
0	1142	171.557902827933	116
0	1142	171.557902827933	116
0	1154	173.229018404455	117
0	1154	173.229018404455	117
0	1154	173.229018404455	117
0	1164	174.246078890822	118
0	1164	174.246078890822	118
0	1164	174.246078890822	118
0	1178	176.215246645109	119
0	1178	176.215246645109	119
0	1178	176.215246645109	119
0	1190	178.031610954161	120
0	1190	178.031610954161	120
0	1190	178.031610954161	120
0	1192	179.727557816151	121
0	1192	179.727557816151	121
0	1192	179.727557816151	121
0	1194	181.683680975418	122
0	1194	181.683680975418	122
0	1194	181.683680975418	122
0	1206	183.577453730236	123
0	1206	183.577453730236	123
0	1206	183.577453730236	123
0	1208	184.974479567333	124
0	1208	184.974479567333	124
0	1208	184.974479567333	124
0	1220	186.214969964771	125
0	1220	186.214969964771	125
0	1220	186.214969964771	125
0	1222	187.318960808523	126
0	1222	187.318960808523	126
0	1222	187.318960808523	126
0	1234	188.379296153391	127
0	1234	188.379296153391	127
0	1234	188.379296153391	127
0	1236	189.767700275712	128
0	1236	189.767700275712	128
0	1236	189.767700275712	128
0	1248	191.38464078687	129
0	1248	191.38464078687	129
0	1248	191.38464078687	129
0	1260	192.583631724425	130
0	1260	192.583631724425	130
0	1260	192.583631724425	130
0	1272	194.256520883253	131
0	1272	194.256520883253	131
0	1272	194.256520883253	131
0	1277	196.071745922629	132
0	1277	196.071745922629	132
0	1277	196.071745922629	132
0	1289	197.972753834052	133
0	1289	197.972753834052	133
0	1289	197.972753834052	133
0	1301	199.091369350048	134
0	1301	199.091369350048	134
0	1301	199.091369350048	134
0	1313	200.715866824219	135
0	1313	200.715866824219	135
0	1313	200.715866824219	135
0	1325	202.285153744116	136
0	1325	202.285153744116	136
0	1325	202.285153744116	136
0	1337	204.02089383018	137
0	1337	204.02089383018	137
0	1337	204.02089383018	137
0	1349	205.659503004586	138
0	1349	205.659503004586	138
0	1349	205.659503004586	138
0	1356	206.886659593859	139
0	1356	206.886659593859	139
0	1356	206.886659593859	139
0	1368	208.217255893934	140
0	1368	208.217255893934	140
0	1368	208.217255893934	140
0	1370	210.13831549145	141
0	1370	210.13831549145	141
0	1370	210.13831549145	141
0	1382	212.00543002838	142
0	1382	212.00543002838	142
0	1382	212.00543002838	142
0	1394	213.648628803973	143
0	1394	213.648628803973	143
0	1394	213.648628803973	143
0	1406	214.990732678051	144
0	1406	214.990732678051	144
0	1406	214.990732678051	144
0	1418	216.212062433899	145
0	1418	216.212062433899	145
0	1418	216.212062433899	145
0	1430	217.380988546951	146
0	1430	217.380988546951	146
0	1430	217.380988546951	146
0	1442	218.478648198374	147
0	1442	218.478648198374	147
0	1442	218.478648198374	147
0	1454	220.138618747775	148
0	1454	220.138618747775	148
0	1454	220.138618747775	148
0	1456	221.177841051553	149
0	1456	221.177841051553	149
0	1456	221.177841051553	149
0	1468	223.051160477872	150
0	1468	223.051160477872	150
0	1468	223.051160477872	150
0	1480	224.952810913163	151
0	1480	224.952810913163	151
0	1480	224.952810913163	151
0	1492	226.864961862868	152
0	1492	226.864961862868	152
0	1492	226.864961862868	152
0	1494	228.864815696679	153
0	1494	228.864815696679	153
0	1494	228.864815696679	153
0	1496	230.058051992046	154
0	1496	230.058051992046	154
0	1496	230.058051992046	154
0	1498	232.001155045187	155
0	1498	232.001155045187	155
0	1498	232.001155045187	155
0	1500	233.103009661032	156
0	1500	233.103009661032	156
0	1500	233.103009661032	156
0	1512	234.963371728618	157
0	1512	234.963371728618	157
0	1512	234.963371728618	157
0	1524	236.456778689359	158
0	1524	236.456778689359	158
0	1524	236.456778689359	158
0	1536	237.963744410851	159
0	1536	237.963744410851	159
0	1536	237.963744410851	159
0	1548	239.501690194781	160
0	1548	239.501690194781	160
0	1548	239.501690194781	160
1	2	0.336915042552	1
1	2	0.336915042552	2
1	2	0.336915042552	3
1	14	2.047392397524	4
1	14	2.047392397524	5
1	14	2.047392397524	6
1	26	3.461235834969	7
1	26	3.461235834969	8
1	26	3.461235834969	9
1	38	4.567873892494	10
1	38	4.567873892494	11
1	38	4.567873892494	12
1	50	5.668246923457	13
1	50	5.668246923457	14
1	50	5.668246923457	15
1	62	6.817723356301	16
1	62	6.817723356301	17
1	62	6.817723356301	18
1	74	8.388491364391	19
1	74	8.388491364391	20
1	74	8.388491364391	21
1	88	12.139712957984	22
1	88	12.139712957984	23
1	88	12.139712957984	24
1	102	15.131304979161	25
1	102	15.131304979161	26
1	102	15.131304979161	27
1	107	16.771017111836	28
1	107	16.771017111836	29
1	107	16.771017111836	30
1	121	19.967842672039	31
1	121	19.967842672039	32
1	121	19.967842672039	33
1	133	21.795926980433	34
1	133	21.795926980433	35
1	133	21.795926980433	36
1	145	23.393868369323	37
1	145	23.393868369323	38
1	145	23.393868369323	39
1	157	24.337289790588	40
1	157	24.337289790588	41
1	157	24.337289790588	42
1	169	26.250996005598	43
1	169	26.250996005598	44
1	169	26.250996005598	45
1	181	28.313443533172	46
1	181	28.313443533172	47
1	181	28.313443533172	48
1	191	29.306059109959	49
1	191	29.306059109959	50
1	191	29.306059109959	51
1	203	30.817057726479	52
1	203	30.817057726479	53
1	203	30.817057726479	54
1	217	33.665861877141	55
1	217	33.665861877141	56
1	217	33.665861877141	57
1	229	34.631538184678	58
1	229	34.631538184678	59
1	229	34.631538184678	60
1	239	36.561824561173	61
1	239	36.561824561173	62
1	239	36.561824561173	63
1	251	38.250727507536	64
1	251	38.250727507536	65
1	251	38.250727507536	66
1	265	40.93315161802	67
1	265	40.93315161802	68
1	265	40.93315161802	69
1	277	42.599643134704	70
1	277	42.599643134704	71
1	277	42.599643134704	72
1	289	43.786793820344	73
1	289	43.786793820344	74
1	289	43.786793820344	75
1	301	45.223103165906	76
1	301	45.223103165906	77
1	301	45.223103165906	78
1	313	46.225995619966	79
1	313	46.225995619966	80
1	313	46.225995619966	81
1	327	49.341291239628	82
1	327	49.341291239628	83
1	327	49.341291239628	84
1	332	51.001293946046	85
1	332	51.001293946046	86
1	332	51.001293946046	87
1	344	52.631300209515	88
1	344	52.631300209515	89
1	344	52.631300209515	90
1	358	55.554683188732	91
1	358	55.554683188732	92
1	358	55.554683188732	93
1	370	56.635019766755	94
1	370	56.635019766755	95
1	370	56.635019766755	96
1	382	57.798596331011	97
1	382	57.798596331011	98
1	382	57.798596331011	99
1	394	59.210904875152	100
1	394	59.210904875152	101
1	394	59.210904875152	102
1	406	60.997768576933	103
1	406	60.997768576933	104
1	406	60.997768576933	105
1	411	62.119840593896	106
1	411	62.119840593896	107
1	411	62.119840593896	108
1	423	63.474128658443	109
1	423	63.474128658443	110
1	423	63.474128658443	111
1	435	65.057631966543	112
1	435	65.057631966543	113
1	435	65.057631966543	114
1	447	66.06115081999	115
1	447	66.06115081999	116
1	447	66.06115081999	117
1	459	67.327441013095	118
1	459	67.327441013095	119
1	459	67.327441013095	120
1	471	68.744125009754	121
1	471	68.744125009754	122
1	471	68.744125009754	123
1	485	71.744750805162	124
1	485	71.744750805162	125
1	485	71.744750805162	126
1	497	73.313868149272	127
1	497	73.313868149272	128
1	497	73.313868149272	129
1	509	75.179880505991	130
1	509	75.179880505991	131
1	509	75.179880505991	132
1	521	76.708632337566	133
1	521	76.708632337566	134
1	521	76.708632337566	135
1	533	78.326117416885	136
1	533	78.326117416885	137
1	533	78.326117416885	138
1	545	80.246300111906	139
1	545	80.246300111906	140
1	545	80.246300111906	141
1	557	81.476350452862	142
1	557	81.476350452862	143
1	557	81.476350452862	144
1	569	83.035940846289	145
1	569	83.035940846289	146
1	569	83.035940846289	147
1	581	83.983235403914	148
1	581	83.983235403914	149
1	581	83.983235403914	150
1	593	85.610699251834	151
1	593	85.610699251834	152
1	593	85.610699251834	153
1	605	87.559909104125	154
1	605	87.559909104125	155
1	605	87.559909104125	156
1	617	89.10869871516	157
1	617	89.10869871516	158
1	617	89.10869871516	159
1	629	90.070823938597	160
1	629	90.070823938597	161
1	629	90.070823938597	162
1	641	91.712674180544	163
1	641	91.712674180544	164
1	641	91.712674180544	165
1	653	93.065266222386	166
1	653	93.065266222386	167
1	653	93.065266222386	168
1	665	94.472627139704	169
1	665	94.472627139704	170
1	665	94.472627139704	171
1	677	95.954793187142	172
1	677	95.954793187142	173
1	677	95.954793187142	174
1	689	97.830112440563	175
1	689	97.830112440563	176
1	689	97.830112440563	177
1	698	98.769834818247	178
1	698	98.769834818247	179
1	698	98.769834818247	180
1	710	100.350214263864	181
1	710	100.350214263864	182
1	710	100.350214263864	183
1	722	101.963588412974	184
1	722	101.963588412974	185
1	722	101.963588412974	186
1	734	103.656839447887	187
1	734	103.656839447887	188
1	734	103.656839447887	189
1	746	106.569869370079	190
1	746	106.569869370079	191
1	746	106.569869370079	192
1	758	108.526534659159	193
1	758	108.526534659159	194
1	758	108.526534659159	195
1	770	109.820424941645	196
1	770	109.820424941645	197
1	770	109.820424941645	198
1	782	111.171002176615	199
1	782	111.171002176615	200
1	782	111.171002176615	201
1	798	116.037267882684	202
1	798	116.037267882684	203
1	798	116.037267882684	204
1	810	117.417570069133	205
1	810	117.417570069133	206
1	810	117.417570069133	207
1	822	119.137838398282	208
1	822	119.137838398282	209
1	822	119.137838398282	210
1	836	122.461527043603	211
1	836	122.461527043603	212
1	836	122.461527043603	213
1	848	124.425397191201	214
1	848	124.425397191201	215
1	848	124.425397191201	216
1	860	125.94406831559	217
1	860	125.94406831559	218
1	860	125.94406831559	219
1	874	128.453170335034	220
1	874	128.453170335034	221
1	874	128.453170335034	222
1	883	131.172193338945	223
1	883	131.172193338945	224
1	883	131.172193338945	225
1	895	132.464797107658	226
1	895	132.464797107658	227
1	895	132.464797107658	228
1	904	137.689270109352	229
1	904	137.689270109352	230
1	904	137.689270109352	231
1	916	139.178241856477	232
1	916	139.178241856477	233
1	916	139.178241856477	234
1	930	142.432752362703	235
1	930	142.432752362703	236
1	930	142.432752362703	237
1	944	145.584411764486	238
1	944	145.584411764486	239
1	944	145.584411764486	240
1	956	146.692299701314	241
1	956	146.692299701314	242
1	956	146.692299701314	243
1	968	147.736630911335	244
1	968	147.736630911335	245
1	968	147.736630911335	246
1	980	149.80117009717	247
1	980	149.80117009717	248
1	980	149.80117009717	249
1	992	150.903878067028	250
1	992	150.903878067028	251
1	992	150.903878067028	252
1	1004	152.925853184107	253
1	1004	152.925853184107	254
1	1004	152.925853184107	255
1	1016	153.990243556014	256
1	1016	153.990243556014	257
1	1016	153.990243556014	258
1	1028	155.907210393895	259
1	1028	155.907210393895	260
1	1028	155.907210393895	261
1	1040	157.120441752721	262
1	1040	157.120441752721	263
1	1040	157.120441752721	264
1	1047	158.74516098757	265
1	1047	158.74516098757	266
1	1047	158.74516098757	267
1	1059	160.099008635208	268
1	1059	160.099008635208	269
1	1059	160.099008635208	270
1	1071	161.673635636817	271
1	1071	161.673635636817	272
1	1071	161.673635636817	273
1	1083	163.189420061974	274
1	1083	163.189420061974	275
1	1083	163.189420061974	276
1	1097	165.939341219484	277
1	1097	165.939341219484	278
1	1097	165.939341219484	279
1	1109	167.621412641678	280
1	1109	167.621412641678	281
1	1109	167.621412641678	282
1	1121	168.93410819652	283
1	1121	168.93410819652	284
1	1121	168.93410819652	285
1	1131	170.517240344532	286
1	1131	170.517240344532	287
1	1131	170.517240344532	288
1	1143	171.831516199533	289
1	1143	171.831516199533	290
1	1143	171.831516199533	291
1	1155	173.438949084134	292
1	1155	173.438949084134	293
1	1155	173.438949084134	294
1	1167	174.454686974412	295
1	1167	174.454686974412	296
1	1167	174.454686974412	297
1	1179	176.364398716329	298
1	1179	176.364398716329	299
1	1179	176.364398716329	300
1	1195	181.856464683655	301
1	1195	181.856464683655	302
1	1195	181.856464683655	303
1	1209	185.13704301613	304
1	1209	185.13704301613	305
1	1209	185.13704301613	306
1	1223	187.549417323836	307
1	1223	187.549417323836	308
1	1223	187.549417323836	309
1	1237	189.970091971861	310
1	1237	189.970091971861	311
1	1237	189.970091971861	312
1	1249	191.642728446032	313
1	1249	191.642728446032	314
1	1249	191.642728446032	315
1	1261	192.800117336168	316
1	1261	192.800117336168	317
1	1261	192.800117336168	318
1	1273	194.49663272301	319
1	1273	194.49663272301	320
1	1273	194.49663272301	321
1	1278	196.336865918479	322
1	1278	196.336865918479	323
1	1278	196.336865918479	324
1	1290	198.18219312416	325
1	1290	198.18219312416	326
1	1290	198.18219312416	327
1	1302	199.202253768428	328
1	1302	199.202253768428	329
1	1302	199.202253768428	330
1	1314	200.883484859474	331
1	1314	200.883484859474	332
1	1314	200.883484859474	333
1	1326	202.543654271998	334
1	1326	202.543654271998	335
1	1326	202.543654271998	336
1	1338	204.190748029577	337
1	1338	204.190748029577	338
1	1338	204.190748029577	339
1	1350	205.859434982438	340
1	1350	205.859434982438	341
1	1350	205.859434982438	342
1	1357	207.174660084562	343
1	1357	207.174660084562	344
1	1357	207.174660084562	345
1	1371	210.294047727501	346
1	1371	210.294047727501	347
1	1371	210.294047727501	348
1	1383	212.125639401909	349
1	1383	212.125639401909	350
1	1383	212.125639401909	351
1	1395	213.945594561912	352
1	1395	213.945594561912	353
1	1395	213.945594561912	354
1	1407	215.227248243549	355
1	1407	215.227248243549	356
1	1407	215.227248243549	357
1	1419	216.444895646476	358
1	1419	216.444895646476	359
1	1419	216.444895646476	360
1	1431	217.5615330672	361
1	1431	217.5615330672	362
1	1431	217.5615330672	363
1	1443	218.737131396664	364
1	1443	218.737131396664	365
1	1443	218.737131396664	366
1	1457	221.369568718538	367
1	1457	221.369568718538	368
1	1457	221.369568718538	369
1	1469	223.343193241476	370
1	1469	223.343193241476	371
1	1469	223.343193241476	372
1	1481	225.238426408914	373
1	1481	225.238426408914	374
1	1481	225.238426408914	375
1	1501	233.238502651978	376
1	1501	233.238502651978	377
1	1501	233.238502651978	378
1	1513	235.253001329239	379
1	1513	235.253001329239	380
1	1513	235.253001329239	381
1	1525	236.586536423552	382
1	1525	236.586536423552	383
1	1525	236.586536423552	384
1	1537	238.254124691351	385
1	1537	238.254124691351	386
1	1537	238.254124691351	387
1	1549	239.739280457345	388
1	1549	239.739280457345	389
1	1549	239.739280457345	390
2	2	0.336915042552	1
2	6	0.740937257645	2
2	9	0.803066280219	3
2	14	2.047392397524	4
2	18	2.335339164067	5
2	23	2.738115735646	6
2	26	3.461235834969	7
2	30	3.811942040526	8
2	33	3.887960053751	9
2	38	4.567873892494	10
2	44	4.990852654915	11
2	45	5.021573409989	12
2	50	5.668246923457	13
2	59	6.191525778182	14
2	62	6.817723356301	15
2	67	7.226647426106	16
2	70	7.422142394862	17
2	74	8.388491364391	18
2	83	9.274459819989	19
2	88	12.139712957984	20
2	92	12.509554091349	21
2	102	15.131304979161	22
2	107	16.771017111836	23
2	112	17.128152366132	24
2	113	17.205962648583	25
2	121	19.967842672039	26
2	125	20.310640054678	27
2	128	20.499605178244	28
2	133	21.795926980433	29
2	137	22.127944486244	30
2	145	23.393868369323	31
2	156	24.337275697039	32
2	157	24.337289790588	33
2	163	24.750628919985	34
2	164	24.834062733075	35
2	169	26.250996005598	36
2	179	27.144127346572	37
2	181	28.313443533172	38
2	186	28.655602369567	39
2	191	29.306059109959	40
2	197	29.787914962154	41
2	198	29.813233201491	42
2	203	30.817057726479	43
2	209	31.306875869723	44
2	217	33.665861877141	45
2	221	34.074014326297	46
2	229	34.631538184678	47
2	233	35.011973076001	48
2	239	36.561824561173	49
2	244	37.002354249376	50
2	246	37.098941596092	51
2	251	38.250727507536	52
2	257	38.676777570794	53
2	265	40.93315161802	54
2	277	42.599643134704	55
2	284	43.080591286948	56
2	289	43.786793820344	57
2	293	44.236281404878	58
2	295	44.321788544765	59
2	301	45.223103165906	60
2	306	45.628497883987	61
2	307	45.700290373774	62
2	313	46.225995619966	63
2	317	46.661166491926	64
2	320	46.699111892358	65
2	327	49.341291239628	66
2	332	51.001293946046	67
2	339	51.458820869804	68
2	344	52.631300209515	69
2	348	53.055655165067	70
2	353	53.410628523092	71
2	358	55.554683188732	72
2	362	55.932517837706	73
2	369	56.423262761335	74
2	370	56.635019766755	75
2	374	56.967170975279	76
2	382	57.798596331011	77
2	387	58.343671734765	78
2	392	58.757934681234	79
2	394	59.210904875152	80
2	399	59.758869595871	81
2	403	59.971678422927	82
2	406	60.997768576933	83
2	411	62.119840593896	84
2	415	62.524150303561	85
2	423	63.474128658443	86
2	432	64.148763872722	87
2	435	65.057631966543	88
2	446	66.024984383101	89
2	447	66.06115081999	90
2	452	66.444248291654	91
2	453	66.551569952763	92
2	459	67.327441013095	93
2	465	67.736229996251	94
2	471	68.744125009754	95
2	476	69.152927606215	96
2	477	69.194123314151	97
2	485	71.744750805162	98
2	491	72.178127043871	99
2	492	72.187923217295	100
2	497	73.313868149272	101
2	502	73.816726619255	102
2	506	74.121734199375	103
2	509	75.179880505991	104
2	517	75.641885791276	105
2	521	76.708632337566	106
2	525	76.98534852642	107
2	533	78.326117416885	108
2	537	78.61805634625	109
2	543	79.180247269667	110
2	545	80.246300111906	111
2	550	80.639099416432	112
2	557	81.476350452862	113
2	563	81.873142610319	114
2	566	81.96128108303	115
2	569	83.035940846289	116
2	574	83.454224748607	117
2	576	83.54382559676	118
2	581	83.983235403914	119
2	586	84.345300660652	120
2	587	84.429292125157	121
2	593	85.610699251834	122
2	602	86.163625868386	123
2	605	87.559909104125	124
2	610	87.9240059345	125
2	612	88.062625778925	126
2	617	89.10869871516	127
2	621	89.375332531035	128
2	624	89.597676863158	129
2	629	90.070823938597	130
2	634	90.51500327585	131
2	636	90.537483801113	132
2	641	91.712674180544	133
2	645	92.06356225814	134
2	648	92.181188684916	135
2	653	93.065266222386	136
2	658	93.582014817719	137
2	665	94.472627139704	138
2	670	94.87846361429	139
2	677	95.954793187142	140
2	682	96.321839071822	141
2	689	97.830112440563	142
2	693	98.158962065215	143
2	696	98.220522757718	144
2	698	98.769834818247	145
2	702	99.024550611866	146
2	704	99.141735925931	147
2	710	100.350214263864	148
2	714	100.652780626875	149
2	722	101.963588412974	150
2	731	102.989343283657	151
2	734	103.656839447887	152
2	746	106.569869370079	153
2	751	106.947296306296	154
2	758	108.526534659159	155
2	764	108.939916766574	156
2	770	109.820424941645	157
2	778	110.414352372334	158
2	782	111.171002176615	159
2	787	111.583802964761	160
2	788	111.592054743032	161
2	798	116.037267882684	162
2	802	116.435806161356	163
2	804	116.484295032623	164
2	810	117.417570069133	165
2	814	117.715648156212	166
2	817	117.877026806088	167
2	822	119.137838398282	168
2	829	119.571062477728	169
2	836	122.461527043603	170
2	848	124.425397191201	171
2	852	124.836540642646	172
2	860	125.94406831559	173
2	865	126.356839232854	174
2	869	126.540681949486	175
2	874	128.453170335034	176
2	878	128.904575382937	177
2	883	131.172193338945	178
2	887	131.431186020141	179
2	893	131.996175837042	180
2	895	132.464797107658	181
2	904	137.689270109352	182
2	909	138.031218213969	183
2	912	138.111583190711	184
2	916	139.178241856477	185
2	921	139.680645773545	186
2	925	139.940426887133	187
2	930	142.432752362703	188
2	935	142.828816326543	189
2	938	142.983907242971	190
2	944	145.584411764486	191
2	949	146.045372897462	192
2	951	146.150455159803	193
2	956	146.692299701314	194
2	960	146.967641104375	195
2	968	147.736630911335	196
2	973	148.122756940633	197
2	974	148.145893639497	198
2	980	149.80117009717	199
2	984	150.092609379531	200
2	990	150.606102036903	201
2	992	150.903878067028	202
2	997	151.229038754931	203
2	999	151.275862330537	204
2	1004	152.925853184107	205
2	1009	153.245660363996	206
2	1016	153.990243556014	207
2	1021	154.409045949144	208
2	1025	154.75999857481	209
2	1028	155.907210393895	210
2	1032	156.199361016191	211
2	1040	157.120441752721	212
2	1045	157.45992666624	213
2	1047	158.74516098757	214
2	1051	159.016674160482	215
2	1056	159.668256100735	216
2	1059	160.099008635208	217
2	1063	160.441438994994	218
2	1069	160.99048995487	219
2	1071	161.673635636817	220
2	1076	162.098597997752	221
2	1077	162.160512343023	222
2	1083	163.189420061974	223
2	1087	163.446935346908	224
2	1089	163.598432876743	225
2	1097	165.939341219484	226
2	1102	166.278339578006	227
2	1103	166.316326060909	228
2	1109	167.621412641678	229
2	1113	168.00817226086	230
2	1116	168.148252211769	231
2	1121	168.93410819652	232
2	1126	169.353381644377	233