version 3
run General-2-20231019-15:54:20-24860
attr configname General
attr datetime 20231019-15:54:20
attr datetimef 20231019-155420
attr experiment General
attr inifile omnetpp.ini
attr iterationvars ""
attr iterationvarsd ""
attr iterationvarsf ""
attr measurement ""
attr network Reliability
attr processid 24860
attr repetition 2
attr replication #2
attr resultdir results
attr runnumber 2
attr seedset 2
config network Reliability
config Reliability.node[*].transmissionTime "uniform(1s, 2s)"
config Reliability.node[*].delayTime "uniform(0.01s, 0.2s)"
config Reliability.node[*].lossProbability 0.2
config record-eventlog true
config sim-time-limit 240s
config repeat 5

vector 0 Reliability.node[0] txVector ETV
vector 1 Reliability.node[1] txVector ETV
vector 2 Reliability.node[1] rxVector ETV
vector 3 Reliability.node[3] txVector ETV
vector 4 Reliability.node[3] rxVector ETV
vector 5 Reliability.node[0] rxVector ETV
vector 6 Reliability.node[4] txVector ETV
vector 7 Reliability.node[4] rxVector ETV
vector 8 Reliability.node[5] rxVector ETV
vector 9 Reliability.node[5] e2eVector ETV
vector 10 Reliability.node[2] txVector ETV
vector 11 Reliability.node[2] rxVector ETV
0	1	0.092839031499	1
0	1	0.092839031499	1
0	1	0.092839031499	1
0	13	1.118765259413	2
0	13	1.118765259413	2
0	13	1.118765259413	2
0	25	2.617326427037	3
0	25	2.617326427037	3
0	25	2.617326427037	3
0	37	3.744486398781	4
0	37	3.744486398781	4
0	37	3.744486398781	4
0	42	5.3575160925	5
0	42	5.3575160925	5
0	42	5.3575160925	5
0	54	7.322067174847	6
0	54	7.322067174847	6
0	54	7.322067174847	6
0	66	9.270157598211	7
0	66	9.270157598211	7
0	66	9.270157598211	7
0	78	10.439383043927	8
0	78	10.439383043927	8
0	78	10.439383043927	8
0	90	12.365929792422	9
0	90	12.365929792422	9
0	90	12.365929792422	9
0	102	13.716801694614	10
0	102	13.716801694614	10
0	102	13.716801694614	10
0	104	15.502973940476	11
0	104	15.502973940476	11
0	104	15.502973940476	11
0	116	17.384626169476	12
0	116	17.384626169476	12
0	116	17.384626169476	12
0	128	19.279771908206	13
0	128	19.279771908206	13
0	128	19.279771908206	13
0	140	20.525583069325	14
0	140	20.525583069325	14
0	140	20.525583069325	14
0	152	21.799420938846	15
0	152	21.799420938846	15
0	152	21.799420938846	15
0	164	23.452441448365	16
0	164	23.452441448365	16
0	164	23.452441448365	16
0	176	24.810681756139	17
0	176	24.810681756139	17
0	176	24.810681756139	17
0	188	26.236049051648	18
0	188	26.236049051648	18
0	188	26.236049051648	18
0	200	27.479215840595	19
0	200	27.479215840595	19
0	200	27.479215840595	19
0	205	28.581353790611	20
0	205	28.581353790611	20
0	205	28.581353790611	20
0	217	30.209535009246	21
0	217	30.209535009246	21
0	217	30.209535009246	21
0	229	31.887119848765	22
0	229	31.887119848765	22
0	229	31.887119848765	22
0	241	33.012338418066	23
0	241	33.012338418066	23
0	241	33.012338418066	23
0	253	34.725345708215	24
0	253	34.725345708215	24
0	253	34.725345708215	24
0	265	36.689742607083	25
0	265	36.689742607083	25
0	265	36.689742607083	25
0	275	37.815523993941	26
0	275	37.815523993941	26
0	275	37.815523993941	26
0	277	39.166247534119	27
0	277	39.166247534119	27
0	277	39.166247534119	27
0	282	40.341846609042	28
0	282	40.341846609042	28
0	282	40.341846609042	28
0	294	41.860371640204	29
0	294	41.860371640204	29
0	294	41.860371640204	29
0	304	43.554524185155	30
0	304	43.554524185155	30
0	304	43.554524185155	30
0	316	44.986657285849	31
0	316	44.986657285849	31
0	316	44.986657285849	31
0	328	46.359550169921	32
0	328	46.359550169921	32
0	328	46.359550169921	32
0	340	47.590095782672	33
0	340	47.590095782672	33
0	340	47.590095782672	33
0	352	48.947614013703	34
0	352	48.947614013703	34
0	352	48.947614013703	34
0	364	50.551754851147	35
0	364	50.551754851147	35
0	364	50.551754851147	35
0	376	52.432053803021	36
0	376	52.432053803021	36
0	376	52.432053803021	36
0	378	54.334298402557	37
0	378	54.334298402557	37
0	378	54.334298402557	37
0	385	55.579292540459	38
0	385	55.579292540459	38
0	385	55.579292540459	38
0	395	57.52416713468	39
0	395	57.52416713468	39
0	395	57.52416713468	39
0	407	58.586972575423	40
0	407	58.586972575423	40
0	407	58.586972575423	40
0	419	59.886493844001	41
0	419	59.886493844001	41
0	419	59.886493844001	41
0	431	61.227703799747	42
0	431	61.227703799747	42
0	431	61.227703799747	42
0	433	63.227020715384	43
0	433	63.227020715384	43
0	433	63.227020715384	43
0	440	64.975205743473	44
0	440	64.975205743473	44
0	440	64.975205743473	44
0	452	66.599165292244	45
0	452	66.599165292244	45
0	452	66.599165292244	45
0	464	68.162591328166	46
0	464	68.162591328166	46
0	464	68.162591328166	46
0	476	69.540314316071	47
0	476	69.540314316071	47
0	476	69.540314316071	47
0	488	71.514181937111	48
0	488	71.514181937111	48
0	488	71.514181937111	48
0	493	73.336983504725	49
0	493	73.336983504725	49
0	493	73.336983504725	49
0	505	74.654266859657	50
0	505	74.654266859657	50
0	505	74.654266859657	50
0	517	75.779254015322	51
0	517	75.779254015322	51
0	517	75.779254015322	51
0	529	77.692749508443	52
0	529	77.692749508443	52
0	529	77.692749508443	52
0	536	79.615986450595	53
0	536	79.615986450595	53
0	536	79.615986450595	53
0	548	81.040192767299	54
0	548	81.040192767299	54
0	548	81.040192767299	54
0	560	82.304732378126	55
0	560	82.304732378126	55
0	560	82.304732378126	55
0	567	83.768042154397	56
0	567	83.768042154397	56
0	567	83.768042154397	56
0	579	85.675977485973	57
0	579	85.675977485973	57
0	579	85.675977485973	57
0	591	87.103354950688	58
0	591	87.103354950688	58
0	591	87.103354950688	58
0	603	88.130301134913	59
0	603	88.130301134913	59
0	603	88.130301134913	59
0	615	90.128580663838	60
0	615	90.128580663838	60
0	615	90.128580663838	60
0	627	91.737491506171	61
0	627	91.737491506171	61
0	627	91.737491506171	61
0	639	93.121120657791	62
0	639	93.121120657791	62
0	639	93.121120657791	62
0	651	94.970457957611	63
0	651	94.970457957611	63
0	651	94.970457957611	63
0	663	96.500261831815	64
0	663	96.500261831815	64
0	663	96.500261831815	64
0	675	97.61019403047	65
0	675	97.61019403047	65
0	675	97.61019403047	65
0	682	99.40890665331	66
0	682	99.40890665331	66
0	682	99.40890665331	66
0	692	100.638254710493	67
0	692	100.638254710493	67
0	692	100.638254710493	67
0	694	101.743644580032	68
0	694	101.743644580032	68
0	694	101.743644580032	68
0	706	103.71179042712	69
0	706	103.71179042712	69
0	706	103.71179042712	69
0	708	105.413132375592	70
0	708	105.413132375592	70
0	708	105.413132375592	70
0	720	106.803846935296	71
0	720	106.803846935296	71
0	720	106.803846935296	71
0	730	108.23458489149	72
0	730	108.23458489149	72
0	730	108.23458489149	72
0	737	109.274050614351	73
0	737	109.274050614351	73
0	737	109.274050614351	73
0	749	110.481137264307	74
0	749	110.481137264307	74
0	749	110.481137264307	74
0	756	112.398301929255	75
0	756	112.398301929255	75
0	756	112.398301929255	75
0	768	114.21055601446	76
0	768	114.21055601446	76
0	768	114.21055601446	76
0	770	115.903027971061	77
0	770	115.903027971061	77
0	770	115.903027971061	77
0	782	117.805659889495	78
0	782	117.805659889495	78
0	782	117.805659889495	78
0	794	119.00173676528	79
0	794	119.00173676528	79
0	794	119.00173676528	79
0	806	120.127969418671	80
0	806	120.127969418671	80
0	806	120.127969418671	80
0	818	121.148118354166	81
0	818	121.148118354166	81
0	818	121.148118354166	81
0	830	123.072437790241	82
0	830	123.072437790241	82
0	830	123.072437790241	82
0	842	124.587788351132	83
0	842	124.587788351132	83
0	842	124.587788351132	83
0	854	126.002531435127	84
0	854	126.002531435127	84
0	854	126.002531435127	84
0	859	127.292179289526	85
0	859	127.292179289526	85
0	859	127.292179289526	85
0	864	129.237085078164	86
0	864	129.237085078164	86
0	864	129.237085078164	86
0	876	130.631034058073	87
0	876	130.631034058073	87
0	876	130.631034058073	87
0	888	132.406555286396	88
0	888	132.406555286396	88
0	888	132.406555286396	88
0	890	133.456259993158	89
0	890	133.456259993158	89
0	890	133.456259993158	89
0	902	134.861994260011	90
0	902	134.861994260011	90
0	902	134.861994260011	90
0	914	136.333485939793	91
0	914	136.333485939793	91
0	914	136.333485939793	91
0	926	137.57666841291	92
0	926	137.57666841291	92
0	926	137.57666841291	92
0	928	139.406612923854	93
0	928	139.406612923854	93
0	928	139.406612923854	93
0	940	140.512475571149	94
0	940	140.512475571149	94
0	940	140.512475571149	94
0	952	141.555815416408	95
0	952	141.555815416408	95
0	952	141.555815416408	95
0	964	143.27975886643	96
0	964	143.27975886643	96
0	964	143.27975886643	96
0	966	144.493512107079	97
0	966	144.493512107079	97
0	966	144.493512107079	97
0	978	145.665368446634	98
0	978	145.665368446634	98
0	978	145.665368446634	98
0	990	147.230514997403	99
0	990	147.230514997403	99
0	990	147.230514997403	99
0	1002	148.690769986036	100
0	1002	148.690769986036	100
0	1002	148.690769986036	100
0	1009	150.147015732267	101
0	1009	150.147015732267	101
0	1009	150.147015732267	101
0	1021	151.401642237344	102
0	1021	151.401642237344	102
0	1021	151.401642237344	102
0	1031	153.001924274975	103
0	1031	153.001924274975	103
0	1031	153.001924274975	103
0	1043	154.183259796138	104
0	1043	154.183259796138	104
0	1043	154.183259796138	104
0	1055	156.166531695073	105
0	1055	156.166531695073	105
0	1055	156.166531695073	105
0	1067	157.979968545047	106
0	1067	157.979968545047	106
0	1067	157.979968545047	106
0	1079	159.91175717909	107
0	1079	159.91175717909	107
0	1079	159.91175717909	107
0	1091	161.493984856895	108
0	1091	161.493984856895	108
0	1091	161.493984856895	108
0	1096	162.558983433778	109
0	1096	162.558983433778	109
0	1096	162.558983433778	109
0	1098	164.346749783513	110
0	1098	164.346749783513	110
0	1098	164.346749783513	110
0	1100	165.814545949475	111
0	1100	165.814545949475	111
0	1100	165.814545949475	111
0	1102	167.522674588506	112
0	1102	167.522674588506	112
0	1102	167.522674588506	112
0	1104	169.216935734051	113
0	1104	169.216935734051	113
0	1104	169.216935734051	113
0	1116	170.887632904128	114
0	1116	170.887632904128	114
0	1116	170.887632904128	114
0	1128	171.917787822216	115
0	1128	171.917787822216	115
0	1128	171.917787822216	115
0	1140	173.768444223582	116
0	1140	173.768444223582	116
0	1140	173.768444223582	116
0	1152	174.837161006891	117
0	1152	174.837161006891	117
0	1152	174.837161006891	117
0	1164	176.602557113414	118
0	1164	176.602557113414	118
0	1164	176.602557113414	118
0	1176	178.21887658259	119
0	1176	178.21887658259	119
0	1176	178.21887658259	119
0	1188	179.25883010381	120
0	1188	179.25883010381	120
0	1188	179.25883010381	120
0	1200	181.22410223472	121
0	1200	181.22410223472	121
0	1200	181.22410223472	121
0	1210	182.370233311337	122
0	1210	182.370233311337	122
0	1210	182.370233311337	122
0	1224	184.11217658829	123
0	1224	184.11217658829	123
0	1224	184.11217658829	123
0	1233	185.635501761474	124
0	1233	185.635501761474	124
0	1233	185.635501761474	124
0	1245	187.509496628326	125
0	1245	187.509496628326	125
0	1245	187.509496628326	125
0	1250	188.528882707721	126
0	1250	188.528882707721	126
0	1250	188.528882707721	126
0	1262	190.242258722447	127
0	1262	190.242258722447	127
0	1262	190.242258722447	127
0	1274	191.718080155337	128
0	1274	191.718080155337	128
0	1274	191.718080155337	128
0	1281	193.064018895868	129
0	1281	193.064018895868	129
0	1281	193.064018895868	129
0	1288	194.715858193831	130
0	1288	194.715858193831	130
0	1288	194.715858193831	130
0	1300	196.000506590139	131
0	1300	196.000506590139	131
0	1300	196.000506590139	131
0	1312	197.873018641043	132
0	1312	197.873018641043	132
0	1312	197.873018641043	132
0	1322	199.805544172432	133
0	1322	199.805544172432	133
0	1322	199.805544172432	133
0	1324	201.681568858698	134
0	1324	201.681568858698	134
0	1324	201.681568858698	134
0	1329	203.521542707477	135
0	1329	203.521542707477	135
0	1329	203.521542707477	135
0	1341	205.496649633879	136
0	1341	205.496649633879	136
0	1341	205.496649633879	136
0	1353	206.77942501639	137
0	1353	206.77942501639	137
0	1353	206.77942501639	137
0	1365	208.300508183446	138
0	1365	208.300508183446	138
0	1365	208.300508183446	138
0	1367	209.699943825621	139
0	1367	209.699943825621	139
0	1367	209.699943825621	139
0	1379	211.045577042522	140
0	1379	211.045577042522	140
0	1379	211.045577042522	140
0	1391	212.846690738592	141
0	1391	212.846690738592	141
0	1391	212.846690738592	141
0	1403	214.401525469981	142
0	1403	214.401525469981	142
0	1403	214.401525469981	142
0	1405	215.418691170188	143
0	1405	215.418691170188	143
0	1405	215.418691170188	143
0	1417	216.711967001688	144
0	1417	216.711967001688	144
0	1417	216.711967001688	144
0	1424	218.076975394991	145
0	1424	218.076975394991	145
0	1424	218.076975394991	145
0	1436	219.180749264798	146
0	1436	219.180749264798	146
0	1436	219.180749264798	146
0	1448	220.517643720164	147
0	1448	220.517643720164	147
0	1448	220.517643720164	147
0	1460	221.872779155635	148
0	1460	221.872779155635	148
0	1460	221.872779155635	148
0	1472	223.022101664236	149
0	1472	223.022101664236	149
0	1472	223.022101664236	149
0	1484	224.116658128584	150
0	1484	224.116658128584	150
0	1484	224.116658128584	150
0	1493	225.610425937474	151
0	1493	225.610425937474	151
0	1493	225.610425937474	151
0	1505	227.544644171857	152
0	1505	227.544644171857	152
0	1505	227.544644171857	152
0	1517	228.547847779254	153
0	1517	228.547847779254	153
0	1517	228.547847779254	153
0	1519	230.173389165449	154
0	1519	230.173389165449	154
0	1519	230.173389165449	154
0	1531	231.869873362846	155
0	1531	231.869873362846	155
0	1531	231.869873362846	155
0	1533	232.897044290808	156
0	1533	232.897044290808	156
0	1533	232.897044290808	156
0	1545	233.918891979168	157
0	1545	233.918891979168	157
0	1545	233.918891979168	157
0	1557	235.583833566188	158
0	1557	235.583833566188	158
0	1557	235.583833566188	158
0	1569	237.44112429048	159
0	1569	237.44112429048	159
0	1569	237.44112429048	159
0	1571	239.287477528929	160
0	1571	239.287477528929	160
0	1571	239.287477528929	160
1	2	0.238004626979	1
1	2	0.238004626979	2
1	2	0.238004626979	3
1	14	1.254335448455	4
1	14	1.254335448455	5
1	14	1.254335448455	6
1	26	2.761854564124	7
1	26	2.761854564124	8
1	26	2.761854564124	9
1	38	3.927996002378	10
1	38	3.927996002378	11
1	38	3.927996002378	12
1	43	5.629449488782	13
1	43	5.629449488782	14
1	43	5.629449488782	15
1	55	7.447665209799	16
1	55	7.447665209799	17
1	55	7.447665209799	18
1	67	9.471551731688	19
1	67	9.471551731688	20
1	67	9.471551731688	21
1	79	10.707466254917	22
1	79	10.707466254917	23
1	79	10.707466254917	24
1	91	12.632939713508	25
1	91	12.632939713508	26
1	91	12.632939713508	27
1	105	15.714081384229	28
1	105	15.714081384229	29
1	105	15.714081384229	30
1	117	17.54474408948	31
1	117	17.54474408948	32
1	117	17.54474408948	33
1	129	19.442485359098	34
1	129	19.442485359098	35
1	129	19.442485359098	36
1	141	20.689847778469	37
1	141	20.689847778469	38
1	141	20.689847778469	39
1	153	21.919203694982	40
1	153	21.919203694982	41
1	153	21.919203694982	42
1	165	23.570706673917	43
1	165	23.570706673917	44
1	165	23.570706673917	45
1	177	25.086575950759	46
1	177	25.086575950759	47
1	177	25.086575950759	48
1	189	26.527831095182	49
1	189	26.527831095182	50
1	189	26.527831095182	51
1	201	27.691758424421	52
1	201	27.691758424421	53
1	201	27.691758424421	54
1	206	28.765137284412	55
1	206	28.765137284412	56
1	206	28.765137284412	57
1	218	30.401465650994	58
1	218	30.401465650994	59
1	218	30.401465650994	60
1	230	32.105256550209	61
1	230	32.105256550209	62
1	230	32.105256550209	63
1	242	33.157162527064	64
1	242	33.157162527064	65
1	242	33.157162527064	66
1	254	34.869224575145	67
1	254	34.869224575145	68
1	254	34.869224575145	69
1	266	36.937612322036	70
1	266	36.937612322036	71
1	266	36.937612322036	72
1	278	39.345273516842	73
1	278	39.345273516842	74
1	278	39.345273516842	75
1	283	40.575898929384	76
1	283	40.575898929384	77
1	283	40.575898929384	78
1	295	42.154775713303	79
1	295	42.154775713303	80
1	295	42.154775713303	81
1	305	43.695832123487	82
1	305	43.695832123487	83
1	305	43.695832123487	84
1	317	45.137363432828	85
1	317	45.137363432828	86
1	317	45.137363432828	87
1	329	46.65330166498	88
1	329	46.65330166498	89
1	329	46.65330166498	90
1	341	47.762201417506	91
1	341	47.762201417506	92
1	341	47.762201417506	93
1	353	49.235293190283	94
1	353	49.235293190283	95
1	353	49.235293190283	96
1	365	50.798914143656	97
1	365	50.798914143656	98
1	365	50.798914143656	99
1	379	54.498612450808	100
1	379	54.498612450808	101
1	379	54.498612450808	102
1	386	55.695534787827	103
1	386	55.695534787827	104
1	386	55.695534787827	105
1	396	57.67178711395	106
1	396	57.67178711395	107
1	396	57.67178711395	108
1	408	58.723527640216	109
1	408	58.723527640216	110
1	408	58.723527640216	111
1	420	60.003292989724	112
1	420	60.003292989724	113
1	420	60.003292989724	114
1	434	63.471712768946	115
1	434	63.471712768946	116
1	434	63.471712768946	117
1	441	65.158730275433	118
1	441	65.158730275433	119
1	441	65.158730275433	120
1	453	66.899083549507	121
1	453	66.899083549507	122
1	453	66.899083549507	123
1	465	68.414019897488	124
1	465	68.414019897488	125
1	465	68.414019897488	126
1	477	69.6963952307	127
1	477	69.6963952307	128
1	477	69.6963952307	129
1	489	71.624815671254	130
1	489	71.624815671254	131
1	489	71.624815671254	132
1	494	73.56971980577	133
1	494	73.56971980577	134
1	494	73.56971980577	135
1	506	74.849095800417	136
1	506	74.849095800417	137
1	506	74.849095800417	138
1	518	75.894011350466	139
1	518	75.894011350466	140
1	518	75.894011350466	141
1	530	77.962704358346	142
1	530	77.962704358346	143
1	530	77.962704358346	144
1	537	79.870695096379	145
1	537	79.870695096379	146
1	537	79.870695096379	147
1	549	81.194512995809	148
1	549	81.194512995809	149
1	549	81.194512995809	150
1	561	82.428125547549	151
1	561	82.428125547549	152
1	561	82.428125547549	153
1	568	84.059243547759	154
1	568	84.059243547759	155
1	568	84.059243547759	156
1	580	85.830710463141	157
1	580	85.830710463141	158
1	580	85.830710463141	159
1	592	87.271036252532	160
1	592	87.271036252532	161
1	592	87.271036252532	162
1	604	88.281459152357	163
1	604	88.281459152357	164
1	604	88.281459152357	165
1	616	90.422142357627	166
1	616	90.422142357627	167
1	616	90.422142357627	168
1	628	91.974060208328	169
1	628	91.974060208328	170
1	628	91.974060208328	171
1	640	93.369340844944	172
1	640	93.369340844944	173
1	640	93.369340844944	174
1	652	95.148556863422	175
1	652	95.148556863422	176
1	652	95.148556863422	177
1	664	96.620261450073	178
1	664	96.620261450073	179
1	664	96.620261450073	180
1	676	97.777487458229	181
1	676	97.777487458229	182
1	676	97.777487458229	183
1	683	99.562217684778	184
1	683	99.562217684778	185
1	683	99.562217684778	186
1	695	102.016197745859	187
1	695	102.016197745859	188
1	695	102.016197745859	189
1	709	105.624595146735	190
1	709	105.624595146735	191
1	709	105.624595146735	192
1	721	107.07695307691	193
1	721	107.07695307691	194
1	721	107.07695307691	195
1	731	108.481978811367	196
1	731	108.481978811367	197
1	731	108.481978811367	198
1	738	109.461947636864	199
1	738	109.461947636864	200
1	738	109.461947636864	201
1	750	110.763906063006	202
1	750	110.763906063006	203
1	750	110.763906063006	204
1	757	112.52741466547	205
1	757	112.52741466547	206
1	757	112.52741466547	207
1	771	116.095688479987	208
1	771	116.095688479987	209
1	771	116.095688479987	210
1	783	118.096506819697	211
1	783	118.096506819697	212
1	783	118.096506819697	213
1	795	119.132797521255	214
1	795	119.132797521255	215
1	795	119.132797521255	216
1	807	120.272113504086	217
1	807	120.272113504086	218
1	807	120.272113504086	219
1	819	121.418214719801	220
1	819	121.418214719801	221
1	819	121.418214719801	222
1	831	123.267222862388	223
1	831	123.267222862388	224
1	831	123.267222862388	225
1	843	124.743365520875	226
1	843	124.743365520875	227
1	843	124.743365520875	228
1	855	126.245005020693	229
1	855	126.245005020693	230
1	855	126.245005020693	231
1	860	127.512525203352	232
1	860	127.512525203352	233
1	860	127.512525203352	234
1	865	129.431344860411	235
1	865	129.431344860411	236
1	865	129.431344860411	237
1	877	130.801624952004	238
1	877	130.801624952004	239
1	877	130.801624952004	240
1	891	133.736305587473	241
1	891	133.736305587473	242
1	891	133.736305587473	243
1	903	135.033179517574	244
1	903	135.033179517574	245
1	903	135.033179517574	246
1	915	136.478943884107	247
1	915	136.478943884107	248
1	915	136.478943884107	249
1	929	139.704100341227	250
1	929	139.704100341227	251
1	929	139.704100341227	252
1	941	140.623983019845	253
1	941	140.623983019845	254
1	941	140.623983019845	255
1	953	141.744525929872	256
1	953	141.744525929872	257
1	953	141.744525929872	258
1	967	144.765254788181	259
1	967	144.765254788181	260
1	967	144.765254788181	261
1	979	145.875326281302	262
1	979	145.875326281302	263
1	979	145.875326281302	264
1	991	147.461591839039	265
1	991	147.461591839039	266
1	991	147.461591839039	267
1	1003	148.917009010083	268
1	1003	148.917009010083	269
1	1003	148.917009010083	270
1	1010	150.339560756722	271
1	1010	150.339560756722	272
1	1010	150.339560756722	273
1	1022	151.648491247183	274
1	1022	151.648491247183	275
1	1022	151.648491247183	276
1	1032	153.150088805425	277
1	1032	153.150088805425	278
1	1032	153.150088805425	279
1	1044	154.470349409907	280
1	1044	154.470349409907	281
1	1044	154.470349409907	282
1	1056	156.402832594282	283
1	1056	156.402832594282	284
1	1056	156.402832594282	285
1	1068	158.117548114451	286
1	1068	158.117548114451	287
1	1068	158.117548114451	288
1	1080	160.085073323537	289
1	1080	160.085073323537	290
1	1080	160.085073323537	291
1	1092	161.6660566463	292
1	1092	161.6660566463	293
1	1092	161.6660566463	294
1	1105	169.378430027101	295
1	1105	169.378430027101	296
1	1105	169.378430027101	297
1	1117	171.001644858067	298
1	1117	171.001644858067	299
1	1117	171.001644858067	300
1	1129	172.093668604378	301
1	1129	172.093668604378	302
1	1129	172.093668604378	303
1	1141	173.91161133045	304
1	1141	173.91161133045	305
1	1141	173.91161133045	306
1	1153	175.110149054621	307
1	1153	175.110149054621	308
1	1153	175.110149054621	309
1	1165	176.71731106901	310
1	1165	176.71731106901	311
1	1165	176.71731106901	312
1	1177	178.329969992122	313
1	1177	178.329969992122	314
1	1177	178.329969992122	315
1	1189	179.379548223045	316
1	1189	179.379548223045	317
1	1189	179.379548223045	318
1	1201	181.521905920716	319
1	1201	181.521905920716	320
1	1201	181.521905920716	321
1	1213	182.642884995326	322
1	1213	182.642884995326	323
1	1213	182.642884995326	324
1	1225	184.361921554483	325
1	1225	184.361921554483	326
1	1225	184.361921554483	327
1	1234	185.760418952364	328
1	1234	185.760418952364	329
1	1234	185.760418952364	330
1	1246	187.626443050386	331
1	1246	187.626443050386	332
1	1246	187.626443050386	333
1	1251	188.741012117896	334
1	1251	188.741012117896	335
1	1251	188.741012117896	336
1	1263	190.541434273257	337
1	1263	190.541434273257	338
1	1263	190.541434273257	339
1	1275	191.933316008874	340
1	1275	191.933316008874	341
1	1275	191.933316008874	342
1	1282	193.317169541998	343
1	1282	193.317169541998	344
1	1282	193.317169541998	345
1	1289	194.867521046181	346
1	1289	194.867521046181	347
1	1289	194.867521046181	348
1	1301	196.28053343527	349
1	1301	196.28053343527	350
1	1301	196.28053343527	351
1	1313	198.170612146155	352
1	1313	198.170612146155	353
1	1313	198.170612146155	354
1	1325	201.827080784612	355
1	1325	201.827080784612	356
1	1325	201.827080784612	357
1	1330	203.80464149883	358
1	1330	203.80464149883	359
1	1330	203.80464149883	360
1	1342	205.79379831278	361
1	1342	205.79379831278	362
1	1342	205.79379831278	363
1	1354	206.96857392309	364
1	1354	206.96857392309	365
1	1354	206.96857392309	366
1	1368	209.966145802869	367
1	1368	209.966145802869	368
1	1368	209.966145802869	369
1	1380	211.341347888263	370
1	1380	211.341347888263	371
1	1380	211.341347888263	372
1	1392	212.970913587974	373
1	1392	212.970913587974	374
1	1392	212.970913587974	375
1	1406	215.529204735738	376
1	1406	215.529204735738	377
1	1406	215.529204735738	378
1	1418	216.989869339117	379
1	1418	216.989869339117	380
1	1418	216.989869339117	381
1	1425	218.305923188001	382
1	1425	218.305923188001	383
1	1425	218.305923188001	384
1	1437	219.380784407154	385
1	1437	219.380784407154	386
1	1437	219.380784407154	387
1	1449	220.782410400515	388
1	1449	220.782410400515	389
1	1449	220.782410400515	390
1	1461	222.047708736628	391
1	1461	222.047708736628	392
1	1461	222.047708736628	393
1	1473	223.187468854143	394
1	1473	223.187468854143	395
1	1473	223.187468854143	396
1	1485	224.237681183906	397
1	1485	224.237681183906	398
1	1485	224.237681183906	399
1	1494	225.814672523698	400
1	1494	225.814672523698	401
1	1494	225.814672523698	402
1	1506	227.762874119022	403
1	1506	227.762874119022	404
1	1506	227.762874119022	405
1	1520	230.284249509253	406
1	1520	230.284249509253	407
1	1520	230.284249509253	408
1	1534	233.063893947339	409
1	1534	233.063893947339	410
1	1534	233.063893947339	411
1	1546	234.039512311361	412
1	1546	234.039512311361	413
1	1546	234.039512311361	414
1	1558	235.831559642082	415
1	1558	235.831559642082	416
1	1558	235.831559642082	417
1	1572	239.52291928579	418
1	1572	239.52291928579	419
1	1572	239.52291928579	420
2	2	0.238004626979	1
2	7	0.620585763984	2
2	11	1.072417143857	3
2	14	1.254335448455	4
2	20	1.688477240507	5
2	26	2.761854564124	6
2	30	3.045116524804	7
2	33	3.199038472215	8
2	38	3.927996002378	9
2	43	5.629449488782	10
2	48	5.955637368257	11
2	49	6.09969203322	12
2	55	7.447665209799	13
2	60	7.807531292293	14
2	62	7.911318981479	15
2	67	9.471551731688	16
2	72	9.917262711612	17
2	74	9.97792359252	18
2	79	10.707466254917	19
2	84	11.134666177645	20
2	85	11.151023201843	21
2	91	12.632939713508	22
2	100	13.624539350712	23
2	105	15.714081384229	24
2	110	16.124626844187	25
2	111	16.157128751168	26
2	117	17.54474408948	27
2	122	18.018860384034	28
2	124	18.089730706377	29
2	129	19.442485359098	30
2	138	19.979676977258	31
2	141	20.689847778469	32
2	151	21.490837847768	33
2	153	21.919203694982	34
2	158	22.197066159644	35
2	165	23.570706673917	36
2	175	24.463519831392	37
2	177	25.086575950759	38
2	182	25.464523080944	39
2	183	25.479149363825	40
2	189	26.527831095182	41
2	194	27.007615351384	42
2	199	27.368461367378	43
2	201	27.691758424421	44
2	206	28.765137284412	45
2	210	29.177353222934	46
2	211	29.203903198077	47
2	218	30.401465650994	48
2	223	30.822401269994	49
2	225	30.927069829599	50
2	230	32.105256550209	51
2	236	32.525996578801	52
2	238	32.627292240287	53
2	242	33.157162527064	54
2	246	33.428278234202	55
2	254	34.869224575145	56
2	266	36.937612322036	57
2	278	39.345273516842	58
2	283	40.575898929384	59
2	288	40.924669781309	60
2	289	40.950910523812	61
2	295	42.154775713303	62
2	300	42.70300674412	63
2	305	43.695832123487	64
2	317	45.137363432828	65
2	322	45.473886160046	66
2	327	45.919779258545	67
2	329	46.65330166498	68
2	334	47.021449324387	69
2	337	47.149754985264	70
2	341	47.762201417506	71
2	348	48.189399985317	72
2	353	49.235293190283	73
2	357	49.598847702162	74
2	359	49.668740103116	75
2	365	50.798914143656	76
2	369	51.195540982337	77
2	373	51.381117789753	78
2	379	54.498612450808	79
2	383	54.872881104057	80
2	386	55.695534787827	81
2	390	56.040976165437	82
2	396	57.67178711395	83
2	402	58.102686741664	84
2	408	58.723527640216	85
2	413	59.206251544964	86
2	415	59.254657248019	87
2	420	60.003292989724	88
2	424	60.399147906983	89
2	425	60.417286155417	90
2	434	63.471712768946	91
2	438	63.80387058147	92
2	441	65.158730275433	93
2	445	65.52843657081	94
2	453	66.899083549507	95
2	458	67.266476326751	96
2	465	68.414019897488	97
2	477	69.6963952307	98
2	481	69.957709540415	99
2	486	70.213925905918	100
2	489	71.624815671254	101
2	494	73.56971980577	102
2	506	74.849095800417	103
2	510	75.210675633187	104
2	512	75.300091221834	105
2	518	75.894011350466	106
2	523	76.321885885253	107
2	524	76.372461201469	108
2	530	77.962704358346	109
2	535	78.478912119228	110
2	537	79.870695096379	111
2	547	80.738353542722	112
2	549	81.194512995809	113
2	554	81.551152179199	114
2	559	81.655702217758	115
2	561	82.428125547549	116
2	565	82.748904763869	117
2	568	84.059243547759	118
2	572	84.319746010754	119
2	575	84.457104650082	120
2	580	85.830710463141	121
2	585	86.226164319109	122
2	586	86.29075464794	123
2	592	87.271036252532	124
2	598	87.58940046389	125
2	599	87.683769184725	126
2	604	88.281459152357	127
2	609	88.669499537715	128
2	616	90.422142357627	129
2	620	90.767571776913	130
2	622	90.81751304702	131
2	628	91.974060208328	132
2	633	92.291033438692	133
2	636	92.491790442796	134
2	640	93.369340844944	135
2	648	93.931438835047	136
2	652	95.148556863422	137
2	655	95.400121104991	138
2	659	95.582838391076	139
2	664	96.620261450073	140
2	669	97.065728013905	141
2	674	97.455404846732	142
2	676	97.777487458229	143
2	680	98.244306665292	144
2	683	99.562217684778	145
2	695	102.016197745859	146
2	699	102.376584943131	147
2	702	102.487547938303	148
2	709	105.624595146735	149
2	713	105.946913710317	150
2	716	106.139394571638	151
2	721	107.07695307691	152
2	726	107.496004526281	153
2	731	108.481978811367	154
2	738	109.461947636864	155
2	745	109.964727152375	156
2	750	110.763906063006	157
2	757	112.52741466547	158
2	761	112.805825164952	159
2	764	113.005685212792	160
2	771	116.095688479987	161
2	776	116.501049016034	162
2	778	116.538999171988	163
2	783	118.096506819697	164
2	788	118.490982833552	165
2	789	118.521690475473	166
2	795	119.132797521255	167
2	801	119.51661211788	168
2	802	119.554880072509	169
2	807	120.272113504086	170
2	811	120.608980914631	171
2	812	120.625711890785	172
2	819	121.418214719801	173
2	824	121.848841404001	174
2	831	123.267222862388	175
2	836	123.745051896469	176
2	841	124.017057575029	177
2	843	124.743365520875	178
2	850	125.278931188363	179
2	855	126.245005020693	180
2	860	127.512525203352	181
2	865	129.431344860411	182
2	869	129.70218608416	183
2	873	129.962799859515	184
2	877	130.801624952004	185
2	883	131.270249023198	186
2	884	131.297903817162	187
2	891	133.736305587473	188
2	896	134.171255570874	189
2	900	134.553630158124	190
2	903	135.033179517574	191
2	908	135.466804479369	192
2	912	135.744677709394	193
2	915	136.478943884107	194
2	919	136.73933254641	195
2	920	136.839891069524	196
2	929	139.704100341227	197
2	933	139.956240874922	198
2	935	140.00506129836	199
2	941	140.623983019845	200
2	945	141.006275094266	201
2	950	141.396293607027	202
2	953	141.744525929872	203
2	957	142.120111800201	204