version 3
run General-3-20231019-15:54:20-24860
attr configname General
attr datetime 20231019-15:54:20
attr datetimef 20231019-155420
attr experiment General
attr inifile omnetpp.ini
attr iterationvars ""
attr iterationvarsd ""
attr iterationvarsf ""
attr measurement ""
attr network Reliability
attr processid 24860
attr repetition 3
attr replication #3
attr resultdir results
attr runnumber 3
attr seedset 3
config network Reliability
config Reliability.node[*].transmissionTime "uniform(1s, 2s)"
config Reliability.node[*].delayTime "uniform(0.01s, 0.2s)"
config Reliability.node[*].lossProbability 0.2
config record-eventlog true
config sim-time-limit 240s
config repeat 5

vector 0 Reliability.node[0] txVector ETV
vector 1 Reliability.node[1] txVector ETV
vector 2 Reliability.node[1] rxVector ETV
vector 3 Reliability.node[2] txVector ETV
vector 4 Reliability.node[2] rxVector ETV
vector 5 Reliability.node[0] rxVector ETV
vector 6 Reliability.node[3] txVector ETV
vector 7 Reliability.node[3] rxVector ETV
vector 8 Reliability.node[4] txVector ETV
vector 9 Reliability.node[4] rxVector ETV
vector 10 Reliability.node[5] rxVector ETV
vector 11 Reliability.node[5] e2eVector ETV
0	1	0.114651601831	1
0	1	0.114651601831	1
0	1	0.114651601831	1
0	8	1.822799424012	2
0	8	1.822799424012	2
0	8	1.822799424012	2
0	10	3.070687725744	3
0	10	3.070687725744	3
0	10	3.070687725744	3
0	22	4.511497564218	4
0	22	4.511497564218	4
0	22	4.511497564218	4
0	34	5.817858191277	5
0	34	5.817858191277	5
0	34	5.817858191277	5
0	46	7.720692293788	6
0	46	7.720692293788	6
0	46	7.720692293788	6
0	58	8.92404682266	7
0	58	8.92404682266	7
0	58	8.92404682266	7
0	70	10.286223038867	8
0	70	10.286223038867	8
0	70	10.286223038867	8
0	82	11.588486652424	9
0	82	11.588486652424	9
0	82	11.588486652424	9
0	94	12.740347645081	10
0	94	12.740347645081	10
0	94	12.740347645081	10
0	106	14.31163238997	11
0	106	14.31163238997	11
0	106	14.31163238997	11
0	118	16.037302014487	12
0	118	16.037302014487	12
0	118	16.037302014487	12
0	120	17.609539634384	13
0	120	17.609539634384	13
0	120	17.609539634384	13
0	125	18.683163299061	14
0	125	18.683163299061	14
0	125	18.683163299061	14
0	127	19.951111053884	15
0	127	19.951111053884	15
0	127	19.951111053884	15
0	139	21.160484403441	16
0	139	21.160484403441	16
0	139	21.160484403441	16
0	151	22.3788823053	17
0	151	22.3788823053	17
0	151	22.3788823053	17
0	153	23.536915966146	18
0	153	23.536915966146	18
0	153	23.536915966146	18
0	165	24.844599694316	19
0	165	24.844599694316	19
0	165	24.844599694316	19
0	177	26.816223989543	20
0	177	26.816223989543	20
0	177	26.816223989543	20
0	189	28.744722836022	21
0	189	28.744722836022	21
0	189	28.744722836022	21
0	191	29.975559103838	22
0	191	29.975559103838	22
0	191	29.975559103838	22
0	200	31.414561804454	23
0	200	31.414561804454	23
0	200	31.414561804454	23
0	212	32.719248232502	24
0	212	32.719248232502	24
0	212	32.719248232502	24
0	214	34.002937682276	25
0	214	34.002937682276	25
0	214	34.002937682276	25
0	226	35.541730344366	26
0	226	35.541730344366	26
0	226	35.541730344366	26
0	228	37.133256349317	27
0	228	37.133256349317	27
0	228	37.133256349317	27
0	230	38.356579327095	28
0	230	38.356579327095	28
0	230	38.356579327095	28
0	237	39.588677716512	29
0	237	39.588677716512	29
0	237	39.588677716512	29
0	249	41.383882301697	30
0	249	41.383882301697	30
0	249	41.383882301697	30
0	261	43.021935183159	31
0	261	43.021935183159	31
0	261	43.021935183159	31
0	273	44.727991365199	32
0	273	44.727991365199	32
0	273	44.727991365199	32
0	275	46.134268550272	33
0	275	46.134268550272	33
0	275	46.134268550272	33
0	287	48.001222240808	34
0	287	48.001222240808	34
0	287	48.001222240808	34
0	299	49.82445579844	35
0	299	49.82445579844	35
0	299	49.82445579844	35
0	311	51.493243377958	36
0	311	51.493243377958	36
0	311	51.493243377958	36
0	313	53.041571394843	37
0	313	53.041571394843	37
0	313	53.041571394843	37
0	323	54.114488484408	38
0	323	54.114488484408	38
0	323	54.114488484408	38
0	334	55.435953187128	39
0	334	55.435953187128	39
0	334	55.435953187128	39
0	346	56.4380787479	40
0	346	56.4380787479	40
0	346	56.4380787479	40
0	358	58.119845489809	41
0	358	58.119845489809	41
0	358	58.119845489809	41
0	370	59.693266770174	42
0	370	59.693266770174	42
0	370	59.693266770174	42
0	372	61.584690444009	43
0	372	61.584690444009	43
0	372	61.584690444009	43
0	384	62.705365513755	44
0	384	62.705365513755	44
0	384	62.705365513755	44
0	393	63.926039167285	45
0	393	63.926039167285	45
0	393	63.926039167285	45
0	395	65.586386223627	46
0	395	65.586386223627	46
0	395	65.586386223627	46
0	407	67.58473330231	47
0	407	67.58473330231	47
0	407	67.58473330231	47
0	419	68.876990081813	48
0	419	68.876990081813	48
0	419	68.876990081813	48
0	431	70.80761159428	49
0	431	70.80761159428	49
0	431	70.80761159428	49
0	440	72.170399516193	50
0	440	72.170399516193	50
0	440	72.170399516193	50
0	452	73.767021321529	51
0	452	73.767021321529	51
0	452	73.767021321529	51
0	454	75.272987598856	52
0	454	75.272987598856	52
0	454	75.272987598856	52
0	456	77.222224623733	53
0	456	77.222224623733	53
0	456	77.222224623733	53
0	468	78.917730914033	54
0	468	78.917730914033	54
0	468	78.917730914033	54
0	480	80.632104626927	55
0	480	80.632104626927	55
0	480	80.632104626927	55
0	492	81.739955723123	56
0	492	81.739955723123	56
0	492	81.739955723123	56
0	494	82.772684254987	57
0	494	82.772684254987	57
0	494	82.772684254987	57
0	506	84.208070833074	58
0	506	84.208070833074	58
0	506	84.208070833074	58
0	518	86.117572373316	59
0	518	86.117572373316	59
0	518	86.117572373316	59
0	530	87.543177100435	60
0	530	87.543177100435	60
0	530	87.543177100435	60
0	542	89.380205752632	61
0	542	89.380205752632	61
0	542	89.380205752632	61
0	554	91.280251777569	62
0	554	91.280251777569	62
0	554	91.280251777569	62
0	566	92.939907334583	63
0	566	92.939907334583	63
0	566	92.939907334583	63
0	576	94.333448782168	64
0	576	94.333448782168	64
0	576	94.333448782168	64
0	588	95.992228036584	65
0	588	95.992228036584	65
0	588	95.992228036584	65
0	595	97.437228828972	66
0	595	97.437228828972	66
0	595	97.437228828972	66
0	597	98.663807703951	67
0	597	98.663807703951	67
0	597	98.663807703951	67
0	599	100.226483763964	68
0	599	100.226483763964	68
0	599	100.226483763964	68
0	611	101.569281404442	69
0	611	101.569281404442	69
0	611	101.569281404442	69
0	623	103.445940902992	70
0	623	103.445940902992	70
0	623	103.445940902992	70
0	635	105.051524278777	71
0	635	105.051524278777	71
0	635	105.051524278777	71
0	647	106.302616814686	72
0	647	106.302616814686	72
0	647	106.302616814686	72
0	659	107.620415260619	73
0	659	107.620415260619	73
0	659	107.620415260619	73
0	671	109.315208348282	74
0	671	109.315208348282	74
0	671	109.315208348282	74
0	683	110.701169764227	75
0	683	110.701169764227	75
0	683	110.701169764227	75
0	685	112.462294120644	76
0	685	112.462294120644	76
0	685	112.462294120644	76
0	697	113.569374732277	77
0	697	113.569374732277	77
0	697	113.569374732277	77
0	709	114.753540469869	78
0	709	114.753540469869	78
0	709	114.753540469869	78
0	721	116.576579657919	79
0	721	116.576579657919	79
0	721	116.576579657919	79
0	726	118.489284138265	80
0	726	118.489284138265	80
0	726	118.489284138265	80
0	738	119.868300227518	81
0	738	119.868300227518	81
0	738	119.868300227518	81
0	750	121.176937916153	82
0	750	121.176937916153	82
0	750	121.176937916153	82
0	762	122.719138105004	83
0	762	122.719138105004	83
0	762	122.719138105004	83
0	764	124.40392406804	84
0	764	124.40392406804	84
0	764	124.40392406804	84
0	766	125.632838413655	85
0	766	125.632838413655	85
0	766	125.632838413655	85
0	775	126.710977702704	86
0	775	126.710977702704	86
0	775	126.710977702704	86
0	787	128.607256121537	87
0	787	128.607256121537	87
0	787	128.607256121537	87
0	789	130.519179801526	88
0	789	130.519179801526	88
0	789	130.519179801526	88
0	801	132.423672677553	89
0	801	132.423672677553	89
0	801	132.423672677553	89
0	813	134.156686372426	90
0	813	134.156686372426	90
0	813	134.156686372426	90
0	825	135.298441867181	91
0	825	135.298441867181	91
0	825	135.298441867181	91
0	837	136.814299334143	92
0	837	136.814299334143	92
0	837	136.814299334143	92
0	839	138.428264390747	93
0	839	138.428264390747	93
0	839	138.428264390747	93
0	851	139.751830678969	94
0	851	139.751830678969	94
0	851	139.751830678969	94
0	858	140.957539397828	95
0	858	140.957539397828	95
0	858	140.957539397828	95
0	870	142.336413588445	96
0	870	142.336413588445	96
0	870	142.336413588445	96
0	882	143.797369267396	97
0	882	143.797369267396	97
0	882	143.797369267396	97
0	894	145.511696409737	98
0	894	145.511696409737	98
0	894	145.511696409737	98
0	896	146.562433098047	99
0	896	146.562433098047	99
0	896	146.562433098047	99
0	898	147.670607403223	100
0	898	147.670607403223	100
0	898	147.670607403223	100
0	910	149.510484123905	101
0	910	149.510484123905	101
0	910	149.510484123905	101
0	922	150.520258981106	102
0	922	150.520258981106	102
0	922	150.520258981106	102
0	932	152.224775435939	103
0	932	152.224775435939	103
0	932	152.224775435939	103
0	944	154.216213334888	104
0	944	154.216213334888	104
0	944	154.216213334888	104
0	956	155.531149327127	105
0	956	155.531149327127	105
0	956	155.531149327127	105
0	968	157.524550936721	106
0	968	157.524550936721	106
0	968	157.524550936721	106
0	970	158.611991124531	107
0	970	158.611991124531	107
0	970	158.611991124531	107
0	972	160.279636756122	108
0	972	160.279636756122	108
0	972	160.279636756122	108
0	984	162.168029239938	109
0	984	162.168029239938	109
0	984	162.168029239938	109
0	994	163.478470239627	110
0	994	163.478470239627	110
0	994	163.478470239627	110
0	1001	165.459317950603	111
0	1001	165.459317950603	111
0	1001	165.459317950603	111
0	1013	167.297133526137	112
0	1013	167.297133526137	112
0	1013	167.297133526137	112
0	1025	168.330483667856	113
0	1025	168.330483667856	113
0	1025	168.330483667856	113
0	1037	170.23110150809	114
0	1037	170.23110150809	114
0	1037	170.23110150809	114
0	1049	171.382286431106	115
0	1049	171.382286431106	115
0	1049	171.382286431106	115
0	1051	173.354308749387	116
0	1051	173.354308749387	116
0	1051	173.354308749387	116
0	1053	175.152021289175	117
0	1053	175.152021289175	117
0	1053	175.152021289175	117
0	1058	176.392541552964	118
0	1058	176.392541552964	118
0	1058	176.392541552964	118
0	1070	177.526076864987	119
0	1070	177.526076864987	119
0	1070	177.526076864987	119
0	1080	179.290738514695	120
0	1080	179.290738514695	120
0	1080	179.290738514695	120
0	1092	181.027977483185	121
0	1092	181.027977483185	121
0	1092	181.027977483185	121
0	1099	182.977012842033	122
0	1099	182.977012842033	122
0	1099	182.977012842033	122
0	1111	184.247951323936	123
0	1111	184.247951323936	123
0	1111	184.247951323936	123
0	1123	186.212605070859	124
0	1123	186.212605070859	124
0	1123	186.212605070859	124
0	1135	187.960571800895	125
0	1135	187.960571800895	125
0	1135	187.960571800895	125
0	1147	189.019587882632	126
0	1147	189.019587882632	126
0	1147	189.019587882632	126
0	1159	190.04362735136	127
0	1159	190.04362735136	127
0	1159	190.04362735136	127
0	1171	191.782784267632	128
0	1171	191.782784267632	128
0	1171	191.782784267632	128
0	1183	193.083174923738	129
0	1183	193.083174923738	129
0	1183	193.083174923738	129
0	1195	195.00446418121	130
0	1195	195.00446418121	130
0	1195	195.00446418121	130
0	1207	196.396365625388	131
0	1207	196.396365625388	131
0	1207	196.396365625388	131
0	1212	198.019318085234	132
0	1212	198.019318085234	132
0	1212	198.019318085234	132
0	1224	199.156273430284	133
0	1224	199.156273430284	133
0	1224	199.156273430284	133
0	1236	200.891052027536	134
0	1236	200.891052027536	134
0	1236	200.891052027536	134
0	1248	202.008826676826	135
0	1248	202.008826676826	135
0	1248	202.008826676826	135
0	1250	203.024781980389	136
0	1250	203.024781980389	136
0	1250	203.024781980389	136
0	1262	204.127545061358	137
0	1262	204.127545061358	137
0	1262	204.127545061358	137
0	1264	205.623361113784	138
0	1264	205.623361113784	138
0	1264	205.623361113784	138
0	1276	207.372707096697	139
0	1276	207.372707096697	139
0	1276	207.372707096697	139
0	1288	208.392851552065	140
0	1288	208.392851552065	140
0	1288	208.392851552065	140
0	1300	209.817054571189	141
0	1300	209.817054571189	141
0	1300	209.817054571189	141
0	1312	211.238654726023	142
0	1312	211.238654726023	142
0	1312	211.238654726023	142
0	1324	212.342283153279	143
0	1324	212.342283153279	143
0	1324	212.342283153279	143
0	1336	214.248510119809	144
0	1336	214.248510119809	144
0	1336	214.248510119809	144
0	1348	215.988601000352	145
0	1348	215.988601000352	145
0	1348	215.988601000352	145
0	1360	217.969786760235	146
0	1360	217.969786760235	146
0	1360	217.969786760235	146
0	1372	219.018856727589	147
0	1372	219.018856727589	147
0	1372	219.018856727589	147
0	1379	221.008872800345	148
0	1379	221.008872800345	148
0	1379	221.008872800345	148
0	1391	222.270050047502	149
0	1391	222.270050047502	149
0	1391	222.270050047502	149
0	1403	223.730683139829	150
0	1403	223.730683139829	150
0	1403	223.730683139829	150
0	1415	225.71612214048	151
0	1415	225.71612214048	151
0	1415	225.71612214048	151
0	1427	226.905777738966	152
0	1427	226.905777738966	152
0	1427	226.905777738966	152
0	1439	228.650565658767	153
0	1439	228.650565658767	153
0	1439	228.650565658767	153
0	1451	230.219516195661	154
0	1451	230.219516195661	154
0	1451	230.219516195661	154
0	1453	231.811181585143	155
0	1453	231.811181585143	155
0	1453	231.811181585143	155
0	1465	233.346175849043	156
0	1465	233.346175849043	156
0	1465	233.346175849043	156
0	1477	234.758287202172	157
0	1477	234.758287202172	157
0	1477	234.758287202172	157
0	1479	236.08680923849	158
0	1479	236.08680923849	158
0	1479	236.08680923849	158
0	1481	237.362483797433	159
0	1481	237.362483797433	159
0	1481	237.362483797433	159
0	1493	238.610882456718	160
0	1493	238.610882456718	160
0	1493	238.610882456718	160
0	1495	239.885982166115	161
0	1495	239.885982166115	161
0	1495	239.885982166115	161
1	2	0.238089329092	1
1	2	0.238089329092	2
1	2	0.238089329092	3
1	11	3.198462509904	4
1	11	3.198462509904	5
1	11	3.198462509904	6
1	23	4.675367330604	7
1	23	4.675367330604	8
1	23	4.675367330604	9
1	35	5.989666364933	10
1	35	5.989666364933	11
1	35	5.989666364933	12
1	47	7.886132920736	13
1	47	7.886132920736	14
1	47	7.886132920736	15
1	59	9.11876790639	16
1	59	9.11876790639	17
1	59	9.11876790639	18
1	71	10.407913535341	19
1	71	10.407913535341	20
1	71	10.407913535341	21
1	83	11.731938454319	22
1	83	11.731938454319	23
1	83	11.731938454319	24
1	95	13.009794326493	25
1	95	13.009794326493	26
1	95	13.009794326493	27
1	107	14.466033871725	28
1	107	14.466033871725	29
1	107	14.466033871725	30
1	121	17.784599355884	31
1	121	17.784599355884	32
1	121	17.784599355884	33
1	128	20.109980265711	34
1	128	20.109980265711	35
1	128	20.109980265711	36
1	140	21.452828769639	37
1	140	21.452828769639	38
1	140	21.452828769639	39
1	154	23.778959019449	40
1	154	23.778959019449	41
1	154	23.778959019449	42
1	166	25.083587472154	43
1	166	25.083587472154	44
1	166	25.083587472154	45
1	178	26.943728991732	46
1	178	26.943728991732	47
1	178	26.943728991732	48
1	192	30.268964840723	49
1	192	30.268964840723	50
1	192	30.268964840723	51
1	201	31.592343485265	52
1	201	31.592343485265	53
1	201	31.592343485265	54
1	215	34.153387606044	55
1	215	34.153387606044	56
1	215	34.153387606044	57
1	231	38.512745181926	58
1	231	38.512745181926	59
1	231	38.512745181926	60
1	238	39.750804628027	61
1	238	39.750804628027	62
1	238	39.750804628027	63
1	250	41.544104151607	64
1	250	41.544104151607	65
1	250	41.544104151607	66
1	262	43.227300618405	67
1	262	43.227300618405	68
1	262	43.227300618405	69
1	276	46.407026000391	70
1	276	46.407026000391	71
1	276	46.407026000391	72
1	288	48.159088998013	73
1	288	48.159088998013	74
1	288	48.159088998013	75
1	300	49.973527313293	76
1	300	49.973527313293	77
1	300	49.973527313293	78
1	314	53.311597228048	79
1	314	53.311597228048	80
1	314	53.311597228048	81
1	326	54.327692580456	82
1	326	54.327692580456	83
1	326	54.327692580456	84
1	335	55.683217205604	85
1	335	55.683217205604	86
1	335	55.683217205604	87
1	347	56.666605513762	88
1	347	56.666605513762	89
1	347	56.666605513762	90
1	359	58.30513530318	91
1	359	58.30513530318	92
1	359	58.30513530318	93
1	373	61.857244602312	94
1	373	61.857244602312	95
1	373	61.857244602312	96
1	385	62.852693477302	97
1	385	62.852693477302	98
1	385	62.852693477302	99
1	396	65.72868432696	100
1	396	65.72868432696	101
1	396	65.72868432696	102
1	408	67.714300435589	103
1	408	67.714300435589	104
1	408	67.714300435589	105
1	420	69.080205354472	106
1	420	69.080205354472	107
1	420	69.080205354472	108
1	432	71.022328379392	109
1	432	71.022328379392	110
1	432	71.022328379392	111
1	441	72.380522345065	112
1	441	72.380522345065	113
1	441	72.380522345065	114
1	457	77.383378470156	115
1	457	77.383378470156	116
1	457	77.383378470156	117
1	469	79.05468914513	118
1	469	79.05468914513	119
1	469	79.05468914513	120
1	481	80.862898552029	121
1	481	80.862898552029	122
1	481	80.862898552029	123
1	495	83.060949555639	124
1	495	83.060949555639	125
1	495	83.060949555639	126
1	507	84.384108789033	127
1	507	84.384108789033	128
1	507	84.384108789033	129
1	519	86.317814173942	130
1	519	86.317814173942	131
1	519	86.317814173942	132
1	531	87.673268277523	133
1	531	87.673268277523	134
1	531	87.673268277523	135
1	543	89.573526995814	136
1	543	89.573526995814	137
1	543	89.573526995814	138
1	555	91.522051826232	139
1	555	91.522051826232	140
1	555	91.522051826232	141
1	567	93.095607956251	142
1	567	93.095607956251	143
1	567	93.095607956251	144
1	577	94.578223385674	145
1	577	94.578223385674	146
1	577	94.578223385674	147
1	589	96.127310406932	148
1	589	96.127310406932	149
1	589	96.127310406932	150
1	600	100.464916363282	151
1	600	100.464916363282	152
1	600	100.464916363282	153
1	612	101.798278411985	154
1	612	101.798278411985	155
1	612	101.798278411985	156
1	624	103.686432892645	157
1	624	103.686432892645	158
1	624	103.686432892645	159
1	636	105.177674913494	160
1	636	105.177674913494	161
1	636	105.177674913494	162
1	648	106.447849453293	163
1	648	106.447849453293	164
1	648	106.447849453293	165
1	660	107.757956515601	166
1	660	107.757956515601	167
1	660	107.757956515601	168
1	672	109.505737765016	169
1	672	109.505737765016	170
1	672	109.505737765016	171
1	686	112.625702564844	172
1	686	112.625702564844	173
1	686	112.625702564844	174
1	698	113.756613989423	175
1	698	113.756613989423	176
1	698	113.756613989423	177
1	710	114.878289298331	178
1	710	114.878289298331	179
1	710	114.878289298331	180
1	722	116.725024068551	181
1	722	116.725024068551	182
1	722	116.725024068551	183
1	727	118.735589245229	184
1	727	118.735589245229	185
1	727	118.735589245229	186
1	739	120.138733325572	187
1	739	120.138733325572	188
1	739	120.138733325572	189
1	751	121.28956677241	190
1	751	121.28956677241	191
1	751	121.28956677241	192
1	767	125.926502152377	193
1	767	125.926502152377	194
1	767	125.926502152377	195
1	776	126.852550578788	196
1	776	126.852550578788	197
1	776	126.852550578788	198
1	790	130.764244851286	199
1	790	130.764244851286	200
1	790	130.764244851286	201
1	802	132.539884033119	202
1	802	132.539884033119	203
1	802	132.539884033119	204
1	814	134.386906348325	205
1	814	134.386906348325	206
1	814	134.386906348325	207
1	826	135.550181840779	208
1	826	135.550181840779	209
1	826	135.550181840779	210
1	840	138.571174169963	211
1	840	138.571174169963	212
1	840	138.571174169963	213
1	852	140.011074246459	214
1	852	140.011074246459	215
1	852	140.011074246459	216
1	859	141.175755215786	217
1	859	141.175755215786	218
1	859	141.175755215786	219
1	871	142.546871803049	220
1	871	142.546871803049	221
1	871	142.546871803049	222
1	883	144.054430687072	223
1	883	144.054430687072	224
1	883	144.054430687072	225
1	899	147.926264540564	226
1	899	147.926264540564	227
1	899	147.926264540564	228
1	911	149.755941292236	229
1	911	149.755941292236	230
1	911	149.755941292236	231
1	923	150.717021848827	232
1	923	150.717021848827	233
1	923	150.717021848827	234
1	933	152.39454954037	235
1	933	152.39454954037	236
1	933	152.39454954037	237
1	945	154.358287528882	238
1	945	154.358287528882	239
1	945	154.358287528882	240
1	957	155.651221944029	241
1	957	155.651221944029	242
1	957	155.651221944029	243
1	973	160.444042341982	244
1	973	160.444042341982	245
1	973	160.444042341982	246
1	985	162.445633934859	247
1	985	162.445633934859	248
1	985	162.445633934859	249
1	995	163.607109150101	250
1	995	163.607109150101	251
1	995	163.607109150101	252
1	1002	165.610262320378	253
1	1002	165.610262320378	254
1	1002	165.610262320378	255
1	1014	167.440290360673	256
1	1014	167.440290360673	257
1	1014	167.440290360673	258
1	1026	168.551123580498	259
1	1026	168.551123580498	260
1	1026	168.551123580498	261
1	1038	170.513553614235	262
1	1038	170.513553614235	263
1	1038	170.513553614235	264
1	1054	175.268706929803	265
1	1054	175.268706929803	266
1	1054	175.268706929803	267
1	1059	176.526233368328	268
1	1059	176.526233368328	269
1	1059	176.526233368328	270
1	1071	177.719506521756	271
1	1071	177.719506521756	272
1	1071	177.719506521756	273
1	1081	179.523441751905	274
1	1081	179.523441751905	275
1	1081	179.523441751905	276
1	1093	181.297962495232	277
1	1093	181.297962495232	278
1	1093	181.297962495232	279
1	1100	183.199704224184	280
1	1100	183.199704224184	281
1	1100	183.199704224184	282
1	1112	184.383172785429	283
1	1112	184.383172785429	284
1	1112	184.383172785429	285
1	1124	186.493160914523	286
1	1124	186.493160914523	287
1	1124	186.493160914523	288
1	1136	188.173963528702	289
1	1136	188.173963528702	290
1	1136	188.173963528702	291
1	1148	189.266267692533	292
1	1148	189.266267692533	293
1	1148	189.266267692533	294
1	1160	190.280652279107	295
1	1160	190.280652279107	296
1	1160	190.280652279107	297
1	1172	192.01194462966	298
1	1172	192.01194462966	299
1	1172	192.01194462966	300
1	1184	193.243665869888	301
1	1184	193.243665869888	302
1	1184	193.243665869888	303
1	1196	195.27327064401	304
1	1196	195.27327064401	305
1	1196	195.27327064401	306
1	1208	196.659781945152	307
1	1208	196.659781945152	308
1	1208	196.659781945152	309
1	1213	198.239475919304	310
1	1213	198.239475919304	311
1	1213	198.239475919304	312
1	1225	199.370230449688	313
1	1225	199.370230449688	314
1	1225	199.370230449688	315
1	1237	201.007146523144	316
1	1237	201.007146523144	317
1	1237	201.007146523144	318
1	1251	203.300302791156	319
1	1251	203.300302791156	320
1	1251	203.300302791156	321
1	1265	205.771075655425	322
1	1265	205.771075655425	323
1	1265	205.771075655425	324
1	1277	207.544118365869	325
1	1277	207.544118365869	326
1	1277	207.544118365869	327
1	1289	208.66035475995	328
1	1289	208.66035475995	329
1	1289	208.66035475995	330
1	1301	209.971638488882	331
1	1301	209.971638488882	332
1	1301	209.971638488882	333
1	1313	211.479509970572	334
1	1313	211.479509970572	335
1	1313	211.479509970572	336
1	1325	212.611830306439	337
1	1325	212.611830306439	338
1	1325	212.611830306439	339
1	1337	214.525528431999	340
1	1337	214.525528431999	341
1	1337	214.525528431999	342
1	1349	216.2308947743	343
1	1349	216.2308947743	344
1	1349	216.2308947743	345
1	1361	218.148333635575	346
1	1361	218.148333635575	347
1	1361	218.148333635575	348
1	1373	219.216142462216	349
1	1373	219.216142462216	350
1	1373	219.216142462216	351
1	1380	221.207679472045	352
1	1380	221.207679472045	353
1	1380	221.207679472045	354
1	1392	222.555796938211	355
1	1392	222.555796938211	356
1	1392	222.555796938211	357
1	1404	224.023485968237	358
1	1404	224.023485968237	359
1	1404	224.023485968237	360
1	1416	225.972870827108	361
1	1416	225.972870827108	362
1	1416	225.972870827108	363
1	1428	227.042864797901	364
1	1428	227.042864797901	365
1	1428	227.042864797901	366
1	1440	228.878405192051	367
1	1440	228.878405192051	368
1	1440	228.878405192051	369
1	1454	232.080924747467	370
1	1454	232.080924747467	371
1	1454	232.080924747467	372
1	1466	233.5083168323	373
1	1466	233.5083168323	374
1	1466	233.5083168323	375
1	1482	237.631097244598	376
1	1482	237.631097244598	377
1	1482	237.631097244598	378
2	2	0.238089329092	1
2	11	3.198462509904	2
2	15	3.48704247027	3
2	19	3.633749253859	4
2	23	4.675367330604	5
2	27	5.082536850297	6
2	35	5.989666364933	7
2	39	6.299006465718	8
2	42	6.435030961691	9
2	47	7.886132920736	10
2	52	8.340718062313	11
2	59	9.11876790639	12
2	63	9.551633711234	13
2	64	9.568133539281	14
2	71	10.407913535341	15
2	74	10.692650482648	16
2	80	11.148781580131	17
2	83	11.731938454319	18
2	87	11.998585440501	19
2	92	12.411833810919	20
2	95	13.009794326493	21
2	99	13.387525709659	22
2	101	13.507370915025	23
2	107	14.466033871725	24
2	111	14.887792825123	25
2	121	17.784599355884	26
2	128	20.109980265711	27
2	132	20.468817029413	28
2	133	20.481493673386	29
2	140	21.452828769639	30
2	145	21.881412195002	31
2	146	21.951929099745	32
2	154	23.778959019449	33
2	159	24.250853305389	34
2	164	24.639714100448	35
2	166	25.083587472154	36
2	171	25.650465760945	37
2	178	26.943728991732	38
2	182	27.36574119463	39
2	183	27.375523952801	40
2	192	30.268964840723	41
2	198	30.690981408258	42
2	199	30.699599920464	43
2	201	31.592343485265	44
2	206	31.967740962369	45
2	207	32.027844304801	46
2	215	34.153387606044	47
2	219	34.479665118957	48
2	221	34.519133608809	49
2	231	38.512745181926	50
2	236	38.837512205235	51
2	238	39.750804628027	52
2	242	40.125385290592	53
2	247	40.482932233785	54
2	250	41.544104151607	55
2	255	41.865173121328	56
2	262	43.227300618405	57
2	266	43.591823344566	58
2	272	44.188490645667	59
2	276	46.407026000391	60
2	282	46.832356592978	61
2	288	48.159088998013	62
2	292	48.550438153944	63
2	293	48.580761275228	64
2	300	49.973527313293	65
2	304	50.443180156899	66
2	314	53.311597228048	67
2	319	53.832185764829	68
2	325	54.147004037802	69
2	326	54.327692580456	70
2	330	54.65057883766	71
2	335	55.683217205604	72
2	339	56.013505143995	73
2	342	56.137401899424	74
2	347	56.666605513762	75
2	352	57.056734454479	76
2	353	57.080532271892	77
2	359	58.30513530318	78
2	364	58.732128508758	79
2	366	58.767964647744	80
2	373	61.857244602312	81
2	378	62.19698670117	82
2	380	62.396750952669	83
2	385	62.852693477302	84
2	390	63.244702565368	85
2	396	65.72868432696	86
2	401	66.110549072866	87
2	402	66.121890669396	88
2	408	67.714300435589	89
2	412	68.088965225574	90
2	420	69.080205354472	91
2	426	69.502108037926	92
2	432	71.022328379392	93
2	436	71.40083123554	94
2	438	71.489172317433	95
2	441	72.380522345065	96
2	450	73.108500604383	97
2	457	77.383378470156	98
2	463	77.848367658975	99
2	464	77.883373819352	100
2	469	79.05468914513	101
2	474	79.50634408988	102
2	479	79.908904880068	103
2	481	80.862898552029	104
2	490	81.614718433849	105
2	495	83.060949555639	106
2	499	83.540417929326	107
2	504	84.042869069384	108
2	507	84.384108789033	109
2	513	84.768107434817	110
2	514	84.825533573123	111
2	519	86.317814173942	112
2	525	86.869851092374	113
2	531	87.673268277523	114
2	535	88.098205551809	115
2	537	88.127293703459	116
2	543	89.573526995814	117
2	547	89.922738389607	118
2	552	90.182324671156	119
2	555	91.522051826232	120
2	560	91.895689674368	121
2	561	91.911256122364	122
2	567	93.095607956251	123
2	572	93.688351122657	124
2	577	94.578223385674	125
2	589	96.127310406932	126
2	593	96.499392085842	127
2	600	100.464916363282	128
2	608	101.014193507559	129
2	612	101.798278411985	130
2	621	102.268103443174	131
2	624	103.686432892645	132
2	629	104.138246489886	133
2	636	105.177674913494	134
2	640	105.631053513104	135
2	643	105.670734758879	136
2	648	106.447849453293	137
2	653	106.845604315788	138
2	654	106.855442026314	139
2	660	107.757956515601	140
2	672	109.505737765016	141
2	676	109.845142904426	142
2	678	109.943185066517	143
2	686	112.625702564844	144
2	691	113.053802856209	145
2	696	113.512253944527	146
2	698	113.756613989423	147
2	708	114.638574525173	148
2	710	114.878289298331	149
2	714	115.260468678227	150
2	722	116.725024068551	151
2	727	118.735589245229	152
2	733	119.199288428006	153
2	734	119.199314338718	154
2	739	120.138733325572	155
2	743	120.40350833168	156
2	745	120.564432695661	157
2	751	121.28956677241	158
2	755	121.661626989296	159
2	756	121.709141195035	160
2	767	125.926502152377	161
2	771	126.388570850989	162
2	776	126.852550578788	163
2	780	127.231998268247	164
2	783	127.363919357741	165
2	790	130.764244851286	166
2	794	131.134874520472	167
2	796	131.145419943344	168
2	802	132.539884033119	169
2	806	132.89778600815	170
2	814	134.386906348325	171
2	818	134.750182970192	172
2	826	135.550181840779	173
2	830	135.935905163759	174
2	831	136.033502355644	175
2	840	138.571174169963	176
2	852	140.011074246459	177
2	856	140.378596862242	178
2	859	141.175755215786	179
2	864	141.54643427305	180
2	866	141.627255450741	181
2	871	142.546871803049	182
2	875	142.903734803144	183
2	876	142.96133147277	184
2	883	144.054430687072	185
2	888	144.478759052684	186
2	899	147.926264540564	187
2	906	148.404588243788	188
2	911	149.755941292236	189
2	915	150.111549713884	190
2	918	150.324467859857	191
2	923	150.717021848827	192
2	933	152.39454954037	193
2	937	152.740218711488	194
2	940	152.824262109737	195
2	945	154.358287528882	196
2	952	154.877822549844	197
2	957	155.651221944029	198
2	962	156.019215422504	199
2	963	156.037749056383	200
2	973	160.444042341982	201
2	978	160.971960940155	202
2	983	161.227721433659	203
2	985	162.445633934859	204
2	990	162.869582476343	205
2	995	163.607109150101	206
2	1000	164.039703128567	207
2	1002	165.610262320378	208
2	1007	166.037622876434	209
2	1008	166.065491134125	210
2	1014	167.440290360673	211
2	1017	167.725323666619	212
2	1024	168.261200286537	213
2	1026	168.551123580498	214
2	1031	168.910089081881	215
2	1032	168.920880145259	216
2	1038	170.513553614235	217
2	1044	171.093567558777	218
2	1048	171.376407088112	219
2	1054	175.268706929803	220
2	1059	176.526233368328	221
2	1065	176.89036052205	222
2	1066	176.934496100031	223
2	1071	177.719506521756	224
2	1075	178.029820001765	225
2	1081	179.523441751905	226
2	1085	179.88231234042	227
2	1086	179.901725411856	228
2	1093	181.297962495232	229
2	1097	181.703949989427	230
2	1100	183.199704224184	231
2	1106	183.664680879366	232
2	1112	184.383172785429	233
2	1116	184.716353786267	234
2	1119	184.790436087315	235
2	1124	186.493160914523	236
2	1128	186.774601287847	237
2	1134	187.251789006617	238
2	1136	188.173963528702	239
2	1140	188.592255871243	240
2	1142	188.644406751341	241