version 3
run General-4-20231017-19:19:35-8222
attr configname General
attr datetime 20231017-19:19:35
attr datetimef 20231017-191935
attr experiment General
attr inifile omnetpp.ini
attr iterationvars ""
attr iterationvarsd ""
attr iterationvarsf ""
attr measurement ""
attr network Reliability
attr processid 8222
attr repetition 4
attr replication #4
attr resultdir results
attr runnumber 4
attr seedset 4
config network Reliability
config Reliability.node[*].transmissionTime "uniform(1s, 2s)"
config Reliability.node[*].delayTime "uniform(0.01s, 0.2s)"
config Reliability.node[*].lossProbability 0.0
config record-eventlog true
config sim-time-limit 240s
config repeat 5

vector 0 Reliability.node[0] txVector ETV
vector 1 Reliability.node[1] txVector ETV
vector 2 Reliability.node[1] rxVector ETV
vector 3 Reliability.node[3] txVector ETV
vector 4 Reliability.node[3] rxVector ETV
vector 5 Reliability.node[2] txVector ETV
vector 6 Reliability.node[2] rxVector ETV
vector 7 Reliability.node[0] rxVector ETV
vector 8 Reliability.node[4] txVector ETV
vector 9 Reliability.node[4] rxVector ETV
vector 10 Reliability.node[5] rxVector ETV
0	1	0.193735669288	1
0	1	0.193735669288	1
0	1	0.193735669288	1
0	13	1.740967922532	2
0	13	1.740967922532	2
0	13	1.740967922532	2
0	25	3.603961157766	3
0	25	3.603961157766	3
0	25	3.603961157766	3
0	37	5.470250454885	4
0	37	5.470250454885	4
0	37	5.470250454885	4
0	49	6.628473862461	5
0	49	6.628473862461	5
0	49	6.628473862461	5
0	61	8.131006923658	6
0	61	8.131006923658	6
0	61	8.131006923658	6
0	73	10.049389962726	7
0	73	10.049389962726	7
0	73	10.049389962726	7
0	85	11.134051575013	8
0	85	11.134051575013	8
0	85	11.134051575013	8
0	97	12.49770192468	9
0	97	12.49770192468	9
0	97	12.49770192468	9
0	109	14.424422611635	10
0	109	14.424422611635	10
0	109	14.424422611635	10
0	121	15.685344769306	11
0	121	15.685344769306	11
0	121	15.685344769306	11
0	133	16.744224860485	12
0	133	16.744224860485	12
0	133	16.744224860485	12
0	145	18.497045060539	13
0	145	18.497045060539	13
0	145	18.497045060539	13
0	157	19.769516521751	14
0	157	19.769516521751	14
0	157	19.769516521751	14
0	169	21.489968642511	15
0	169	21.489968642511	15
0	169	21.489968642511	15
0	181	23.319386590889	16
0	181	23.319386590889	16
0	181	23.319386590889	16
0	193	25.288060720928	17
0	193	25.288060720928	17
0	193	25.288060720928	17
0	205	26.620555885054	18
0	205	26.620555885054	18
0	205	26.620555885054	18
0	217	28.553935053676	19
0	217	28.553935053676	19
0	217	28.553935053676	19
0	229	29.719053168466	20
0	229	29.719053168466	20
0	229	29.719053168466	20
0	241	30.921818219741	21
0	241	30.921818219741	21
0	241	30.921818219741	21
0	253	32.68130436089	22
0	253	32.68130436089	22
0	253	32.68130436089	22
0	265	33.960757960948	23
0	265	33.960757960948	23
0	265	33.960757960948	23
0	277	35.093599967575	24
0	277	35.093599967575	24
0	277	35.093599967575	24
0	289	36.261330178157	25
0	289	36.261330178157	25
0	289	36.261330178157	25
0	301	37.706687222152	26
0	301	37.706687222152	26
0	301	37.706687222152	26
0	313	39.116122810087	27
0	313	39.116122810087	27
0	313	39.116122810087	27
0	325	40.924372532788	28
0	325	40.924372532788	28
0	325	40.924372532788	28
0	337	42.360107271151	29
0	337	42.360107271151	29
0	337	42.360107271151	29
0	349	44.156291651923	30
0	349	44.156291651923	30
0	349	44.156291651923	30
0	361	45.591567962348	31
0	361	45.591567962348	31
0	361	45.591567962348	31
0	373	47.32608714156	32
0	373	47.32608714156	32
0	373	47.32608714156	32
0	385	48.61139807772	33
0	385	48.61139807772	33
0	385	48.61139807772	33
0	397	49.685380521846	34
0	397	49.685380521846	34
0	397	49.685380521846	34
0	409	51.187935041879	35
0	409	51.187935041879	35
0	409	51.187935041879	35
0	421	53.136874471941	36
0	421	53.136874471941	36
0	421	53.136874471941	36
0	433	54.424973538528	37
0	433	54.424973538528	37
0	433	54.424973538528	37
0	445	56.176356988876	38
0	445	56.176356988876	38
0	445	56.176356988876	38
0	457	57.827858376932	39
0	457	57.827858376932	39
0	457	57.827858376932	39
0	469	59.058124554726	40
0	469	59.058124554726	40
0	469	59.058124554726	40
0	481	60.536475085105	41
0	481	60.536475085105	41
0	481	60.536475085105	41
0	493	61.880095359088	42
0	493	61.880095359088	42
0	493	61.880095359088	42
0	505	63.565024205634	43
0	505	63.565024205634	43
0	505	63.565024205634	43
0	517	64.86530547511	44
0	517	64.86530547511	44
0	517	64.86530547511	44
0	529	66.235529604984	45
0	529	66.235529604984	45
0	529	66.235529604984	45
0	541	67.90748601678	46
0	541	67.90748601678	46
0	541	67.90748601678	46
0	553	69.135403515223	47
0	553	69.135403515223	47
0	553	69.135403515223	47
0	565	70.919691002613	48
0	565	70.919691002613	48
0	565	70.919691002613	48
0	577	72.296066622168	49
0	577	72.296066622168	49
0	577	72.296066622168	49
0	589	74.229703924304	50
0	589	74.229703924304	50
0	589	74.229703924304	50
0	601	75.273285835201	51
0	601	75.273285835201	51
0	601	75.273285835201	51
0	613	76.872897084022	52
0	613	76.872897084022	52
0	613	76.872897084022	52
0	625	77.986434277531	53
0	625	77.986434277531	53
0	625	77.986434277531	53
0	637	79.098513090668	54
0	637	79.098513090668	54
0	637	79.098513090668	54
0	649	80.138710937381	55
0	649	80.138710937381	55
0	649	80.138710937381	55
0	661	82.111757455079	56
0	661	82.111757455079	56
0	661	82.111757455079	56
0	673	83.193769672804	57
0	673	83.193769672804	57
0	673	83.193769672804	57
0	685	84.874842937023	58
0	685	84.874842937023	58
0	685	84.874842937023	58
0	697	86.179109181895	59
0	697	86.179109181895	59
0	697	86.179109181895	59
0	709	87.202157594648	60
0	709	87.202157594648	60
0	709	87.202157594648	60
0	721	88.572241033113	61
0	721	88.572241033113	61
0	721	88.572241033113	61
0	733	90.174323215766	62
0	733	90.174323215766	62
0	733	90.174323215766	62
0	745	91.573277479887	63
0	745	91.573277479887	63
0	745	91.573277479887	63
0	757	93.434054340387	64
0	757	93.434054340387	64
0	757	93.434054340387	64
0	769	94.616738402203	65
0	769	94.616738402203	65
0	769	94.616738402203	65
0	781	95.912330668571	66
0	781	95.912330668571	66
0	781	95.912330668571	66
0	793	97.741103601793	67
0	793	97.741103601793	67
0	793	97.741103601793	67
0	805	99.278418737848	68
0	805	99.278418737848	68
0	805	99.278418737848	68
0	817	100.963408906164	69
0	817	100.963408906164	69
0	817	100.963408906164	69
0	829	102.579331311316	70
0	829	102.579331311316	70
0	829	102.579331311316	70
0	841	104.111756099772	71
0	841	104.111756099772	71
0	841	104.111756099772	71
0	853	105.20267207796	72
0	853	105.20267207796	72
0	853	105.20267207796	72
0	865	106.597524430056	73
0	865	106.597524430056	73
0	865	106.597524430056	73
0	877	108.321241034347	74
0	877	108.321241034347	74
0	877	108.321241034347	74
0	889	109.36747200779	75
0	889	109.36747200779	75
0	889	109.36747200779	75
0	901	111.090201570339	76
0	901	111.090201570339	76
0	901	111.090201570339	76
0	913	112.626854618698	77
0	913	112.626854618698	77
0	913	112.626854618698	77
0	925	114.504024451984	78
0	925	114.504024451984	78
0	925	114.504024451984	78
0	937	116.252199831804	79
0	937	116.252199831804	79
0	937	116.252199831804	79
0	949	117.56904406791	80
0	949	117.56904406791	80
0	949	117.56904406791	80
0	961	119.552859931406	81
0	961	119.552859931406	81
0	961	119.552859931406	81
0	973	121.140801847833	82
0	973	121.140801847833	82
0	973	121.140801847833	82
0	985	122.920146990022	83
0	985	122.920146990022	83
0	985	122.920146990022	83
0	997	124.605875578396	84
0	997	124.605875578396	84
0	997	124.605875578396	84
0	1009	126.356781707065	85
0	1009	126.356781707065	85
0	1009	126.356781707065	85
0	1021	127.982421195054	86
0	1021	127.982421195054	86
0	1021	127.982421195054	86
0	1033	129.843292587822	87
0	1033	129.843292587822	87
0	1033	129.843292587822	87
0	1045	131.095734694194	88
0	1045	131.095734694194	88
0	1045	131.095734694194	88
0	1057	132.129789836857	89
0	1057	132.129789836857	89
0	1057	132.129789836857	89
0	1069	133.86980994643	90
0	1069	133.86980994643	90
0	1069	133.86980994643	90
0	1081	135.212214333856	91
0	1081	135.212214333856	91
0	1081	135.212214333856	91
0	1093	136.631022885827	92
0	1093	136.631022885827	92
0	1093	136.631022885827	92
0	1105	138.306945945521	93
0	1105	138.306945945521	93
0	1105	138.306945945521	93
0	1117	140.272461039166	94
0	1117	140.272461039166	94
0	1117	140.272461039166	94
0	1129	142.207932401833	95
0	1129	142.207932401833	95
0	1129	142.207932401833	95
0	1141	143.963747391862	96
0	1141	143.963747391862	96
0	1141	143.963747391862	96
0	1153	145.688409557019	97
0	1153	145.688409557019	97
0	1153	145.688409557019	97
0	1165	147.283993306488	98
0	1165	147.283993306488	98
0	1165	147.283993306488	98
0	1177	148.308481098304	99
0	1177	148.308481098304	99
0	1177	148.308481098304	99
0	1189	150.170528027846	100
0	1189	150.170528027846	100
0	1189	150.170528027846	100
0	1201	151.736242071411	101
0	1201	151.736242071411	101
0	1201	151.736242071411	101
0	1213	153.58688477861	102
0	1213	153.58688477861	102
0	1213	153.58688477861	102
0	1225	155.548934951343	103
0	1225	155.548934951343	103
0	1225	155.548934951343	103
0	1237	157.319886469666	104
0	1237	157.319886469666	104
0	1237	157.319886469666	104
0	1249	159.215422277257	105
0	1249	159.215422277257	105
0	1249	159.215422277257	105
0	1261	161.109788945561	106
0	1261	161.109788945561	106
0	1261	161.109788945561	106
0	1273	163.089686931727	107
0	1273	163.089686931727	107
0	1273	163.089686931727	107
0	1285	164.945407713448	108
0	1285	164.945407713448	108
0	1285	164.945407713448	108
0	1297	166.254560487495	109
0	1297	166.254560487495	109
0	1297	166.254560487495	109
0	1309	167.550995608011	110
0	1309	167.550995608011	110
0	1309	167.550995608011	110
0	1321	168.781959945719	111
0	1321	168.781959945719	111
0	1321	168.781959945719	111
0	1333	170.546107200823	112
0	1333	170.546107200823	112
0	1333	170.546107200823	112
0	1345	171.801722845446	113
0	1345	171.801722845446	113
0	1345	171.801722845446	113
0	1357	172.955936795717	114
0	1357	172.955936795717	114
0	1357	172.955936795717	114
0	1369	174.776692560559	115
0	1369	174.776692560559	115
0	1369	174.776692560559	115
0	1381	176.310693633661	116
0	1381	176.310693633661	116
0	1381	176.310693633661	116
0	1393	177.607119826053	117
0	1393	177.607119826053	117
0	1393	177.607119826053	117
0	1405	179.446571509273	118
0	1405	179.446571509273	118
0	1405	179.446571509273	118
0	1417	180.557661263424	119
0	1417	180.557661263424	119
0	1417	180.557661263424	119
0	1429	181.875306765701	120
0	1429	181.875306765701	120
0	1429	181.875306765701	120
0	1441	183.81433689982	121
0	1441	183.81433689982	121
0	1441	183.81433689982	121
0	1453	185.41730544126	122
0	1453	185.41730544126	122
0	1453	185.41730544126	122
0	1465	186.498985472288	123
0	1465	186.498985472288	123
0	1465	186.498985472288	123
0	1477	187.762617822191	124
0	1477	187.762617822191	124
0	1477	187.762617822191	124
0	1489	188.836197660458	125
0	1489	188.836197660458	125
0	1489	188.836197660458	125
0	1501	189.895862425831	126
0	1501	189.895862425831	126
0	1501	189.895862425831	126
0	1513	191.726684703412	127
0	1513	191.726684703412	127
0	1513	191.726684703412	127
0	1525	193.127741395183	128
0	1525	193.127741395183	128
0	1525	193.127741395183	128
0	1537	194.419692054311	129
0	1537	194.419692054311	129
0	1537	194.419692054311	129
0	1549	195.49360285412	130
0	1549	195.49360285412	130
0	1549	195.49360285412	130
0	1561	197.331507646399	131
0	1561	197.331507646399	131
0	1561	197.331507646399	131
0	1573	199.087110655303	132
0	1573	199.087110655303	132
0	1573	199.087110655303	132
0	1585	200.446227760673	133
0	1585	200.446227760673	133
0	1585	200.446227760673	133
0	1597	201.505513430493	134
0	1597	201.505513430493	134
0	1597	201.505513430493	134
0	1609	202.524126439741	135
0	1609	202.524126439741	135
0	1609	202.524126439741	135
0	1621	203.818651423477	136
0	1621	203.818651423477	136
0	1621	203.818651423477	136
0	1633	205.519372901334	137
0	1633	205.519372901334	137
0	1633	205.519372901334	137
0	1645	207.393137557585	138
0	1645	207.393137557585	138
0	1645	207.393137557585	138
0	1657	209.045830919095	139
0	1657	209.045830919095	139
0	1657	209.045830919095	139
0	1669	210.954064047816	140
0	1669	210.954064047816	140
0	1669	210.954064047816	140
0	1681	212.054528534333	141
0	1681	212.054528534333	141
0	1681	212.054528534333	141
0	1693	213.754650987605	142
0	1693	213.754650987605	142
0	1693	213.754650987605	142
0	1705	215.462914739656	143
0	1705	215.462914739656	143
0	1705	215.462914739656	143
0	1717	216.869176145564	144
0	1717	216.869176145564	144
0	1717	216.869176145564	144
0	1729	218.060112856017	145
0	1729	218.060112856017	145
0	1729	218.060112856017	145
0	1741	219.955137604536	146
0	1741	219.955137604536	146
0	1741	219.955137604536	146
0	1753	221.788909850796	147
0	1753	221.788909850796	147
0	1753	221.788909850796	147
0	1765	223.069247770976	148
0	1765	223.069247770976	148
0	1765	223.069247770976	148
0	1777	224.11719937801	149
0	1777	224.11719937801	149
0	1777	224.11719937801	149
0	1789	225.823767430071	150
0	1789	225.823767430071	150
0	1789	225.823767430071	150
0	1801	226.851158725253	151
0	1801	226.851158725253	151
0	1801	226.851158725253	151
0	1813	227.912017770267	152
0	1813	227.912017770267	152
0	1813	227.912017770267	152
0	1825	229.901891622615	153
0	1825	229.901891622615	153
0	1825	229.901891622615	153
0	1837	231.326206455163	154
0	1837	231.326206455163	154
0	1837	231.326206455163	154
0	1849	233.030974161036	155
0	1849	233.030974161036	155
0	1849	233.030974161036	155
0	1861	234.670610679935	156
0	1861	234.670610679935	156
0	1861	234.670610679935	156
0	1873	236.561286531777	157
0	1873	236.561286531777	157
0	1873	236.561286531777	157
0	1885	238.334638456737	158
0	1885	238.334638456737	158
0	1885	238.334638456737	158
0	1897	239.481863956123	159
0	1897	239.481863956123	159
0	1897	239.481863956123	159
1	2	0.47485374568	1
1	2	0.47485374568	2
1	2	0.47485374568	3
1	14	1.959715655977	4
1	14	1.959715655977	5
1	14	1.959715655977	6
1	26	3.893511888278	7
1	26	3.893511888278	8
1	26	3.893511888278	9
1	38	5.587044510648	10
1	38	5.587044510648	11
1	38	5.587044510648	12
1	50	6.805291867657	13
1	50	6.805291867657	14
1	50	6.805291867657	15
1	62	8.371268682298	16
1	62	8.371268682298	17
1	62	8.371268682298	18
1	74	10.286596838822	19
1	74	10.286596838822	20
1	74	10.286596838822	21
1	86	11.4246189604	22
1	86	11.4246189604	23
1	86	11.4246189604	24
1	98	12.731285735429	25
1	98	12.731285735429	26
1	98	12.731285735429	27
1	110	14.60493278639	28
1	110	14.60493278639	29
1	110	14.60493278639	30
1	122	15.796089739763	31
1	122	15.796089739763	32
1	122	15.796089739763	33
1	134	16.856205928154	34
1	134	16.856205928154	35
1	134	16.856205928154	36
1	146	18.723860755831	37
1	146	18.723860755831	38
1	146	18.723860755831	39
1	158	19.972557457886	40
1	158	19.972557457886	41
1	158	19.972557457886	42
1	170	21.643095036191	43
1	170	21.643095036191	44
1	170	21.643095036191	45
1	182	23.542770589539	46
1	182	23.542770589539	47
1	182	23.542770589539	48
1	194	25.586182935745	49
1	194	25.586182935745	50
1	194	25.586182935745	51
1	206	26.804972816074	52
1	206	26.804972816074	53
1	206	26.804972816074	54
1	218	28.741029304328	55
1	218	28.741029304328	56
1	218	28.741029304328	57
1	230	29.963600694541	58
1	230	29.963600694541	59
1	230	29.963600694541	60
1	242	31.20760377121	61
1	242	31.20760377121	62
1	242	31.20760377121	63
1	254	32.980927874461	64
1	254	32.980927874461	65
1	254	32.980927874461	66
1	266	34.10213869819	67
1	266	34.10213869819	68
1	266	34.10213869819	69
1	278	35.312523852357	70
1	278	35.312523852357	71
1	278	35.312523852357	72
1	290	36.526211792175	73
1	290	36.526211792175	74
1	290	36.526211792175	75
1	302	37.984153525239	76
1	302	37.984153525239	77
1	302	37.984153525239	78
1	314	39.267574287575	79
1	314	39.267574287575	80
1	314	39.267574287575	81
1	326	41.127912559017	82
1	326	41.127912559017	83
1	326	41.127912559017	84
1	338	42.572602427829	85
1	338	42.572602427829	86
1	338	42.572602427829	87
1	350	44.454473161657	88
1	350	44.454473161657	89
1	350	44.454473161657	90
1	362	45.842922165325	91
1	362	45.842922165325	92
1	362	45.842922165325	93
1	374	47.450882670299	94
1	374	47.450882670299	95
1	374	47.450882670299	96
1	386	48.745852881783	97
1	386	48.745852881783	98
1	386	48.745852881783	99
1	398	49.868965917529	100
1	398	49.868965917529	101
1	398	49.868965917529	102
1	410	51.47332657401	103
1	410	51.47332657401	104
1	410	51.47332657401	105
1	422	53.408909045785	106
1	422	53.408909045785	107
1	422	53.408909045785	108
1	434	54.650399822384	109
1	434	54.650399822384	110
1	434	54.650399822384	111
1	446	56.395375544898	112
1	446	56.395375544898	113
1	446	56.395375544898	114
1	458	58.061812757124	115
1	458	58.061812757124	116
1	458	58.061812757124	117
1	470	59.203325147897	118
1	470	59.203325147897	119
1	470	59.203325147897	120
1	482	60.810479349712	121
1	482	60.810479349712	122
1	482	60.810479349712	123
1	494	62.177101327615	124
1	494	62.177101327615	125
1	494	62.177101327615	126
1	506	63.7473704624	127
1	506	63.7473704624	128
1	506	63.7473704624	129
1	518	65.093406213801	130
1	518	65.093406213801	131
1	518	65.093406213801	132
1	530	66.442385467672	133
1	530	66.442385467672	134
1	530	66.442385467672	135
1	542	68.079000666823	136
1	542	68.079000666823	137
1	542	68.079000666823	138
1	554	69.292389344765	139
1	554	69.292389344765	140
1	554	69.292389344765	141
1	566	71.176430917633	142
1	566	71.176430917633	143
1	566	71.176430917633	144
1	578	72.544614020213	145
1	578	72.544614020213	146
1	578	72.544614020213	147
1	590	74.342344165342	148
1	590	74.342344165342	149
1	590	74.342344165342	150
1	602	75.494566510226	151
1	602	75.494566510226	152
1	602	75.494566510226	153
1	614	76.991839546838	154
1	614	76.991839546838	155
1	614	76.991839546838	156
1	626	78.240478677903	157
1	626	78.240478677903	158
1	626	78.240478677903	159
1	638	79.21419413773	160
1	638	79.21419413773	161
1	638	79.21419413773	162
1	650	80.252968699797	163
1	650	80.252968699797	164
1	650	80.252968699797	165
1	662	82.394911465586	166
1	662	82.394911465586	167
1	662	82.394911465586	168
1	674	83.315929209592	169
1	674	83.315929209592	170
1	674	83.315929209592	171
1	686	85.108974454037	172
1	686	85.108974454037	173
1	686	85.108974454037	174
1	698	86.293871776385	175
1	698	86.293871776385	176
1	698	86.293871776385	177
1	710	87.412172912164	178
1	710	87.412172912164	179
1	710	87.412172912164	180
1	722	88.738674665352	181
1	722	88.738674665352	182
1	722	88.738674665352	183
1	734	90.456471062	184
1	734	90.456471062	185
1	734	90.456471062	186
1	746	91.801312982831	187
1	746	91.801312982831	188
1	746	91.801312982831	189
1	758	93.604165546535	190
1	758	93.604165546535	191
1	758	93.604165546535	192
1	770	94.755876658761	193
1	770	94.755876658761	194
1	770	94.755876658761	195
1	782	96.127151641806	196
1	782	96.127151641806	197
1	782	96.127151641806	198
1	794	97.955879106598	199
1	794	97.955879106598	200
1	794	97.955879106598	201
1	806	99.567861937185	202
1	806	99.567861937185	203
1	806	99.567861937185	204
1	818	101.255984636261	205
1	818	101.255984636261	206
1	818	101.255984636261	207
1	830	102.84360113147	208
1	830	102.84360113147	209
1	830	102.84360113147	210
1	842	104.332999866563	211
1	842	104.332999866563	212
1	842	104.332999866563	213
1	854	105.351768325914	214
1	854	105.351768325914	215
1	854	105.351768325914	216
1	866	106.764802438324	217
1	866	106.764802438324	218
1	866	106.764802438324	219
1	878	108.462572112732	220
1	878	108.462572112732	221
1	878	108.462572112732	222
1	890	109.482309322705	223
1	890	109.482309322705	224
1	890	109.482309322705	225
1	902	111.266860392057	226
1	902	111.266860392057	227
1	902	111.266860392057	228
1	914	112.897481886685	229
1	914	112.897481886685	230
1	914	112.897481886685	231
1	926	114.635334980852	232
1	926	114.635334980852	233
1	926	114.635334980852	234
1	938	116.453701841201	235
1	938	116.453701841201	236
1	938	116.453701841201	237
1	950	117.696874306834	238
1	950	117.696874306834	239
1	950	117.696874306834	240
1	962	119.795423354522	241
1	962	119.795423354522	242
1	962	119.795423354522	243
1	974	121.423370732141	244
1	974	121.423370732141	245
1	974	121.423370732141	246
1	986	123.165832890986	247
1	986	123.165832890986	248
1	986	123.165832890986	249
1	998	124.889977742086	250
1	998	124.889977742086	251
1	998	124.889977742086	252
1	1010	126.549897084321	253
1	1010	126.549897084321	254
1	1010	126.549897084321	255
1	1022	128.106356807857	256
1	1022	128.106356807857	257
1	1022	128.106356807857	258
1	1034	130.086906884123	259
1	1034	130.086906884123	260
1	1034	130.086906884123	261
1	1046	131.325017954864	262
1	1046	131.325017954864	263
1	1046	131.325017954864	264
1	1058	132.30886217082	265
1	1058	132.30886217082	266
1	1058	132.30886217082	267
1	1070	134.000843853187	268
1	1070	134.000843853187	269
1	1070	134.000843853187	270
1	1082	135.376346696618	271
1	1082	135.376346696618	272
1	1082	135.376346696618	273
1	1094	136.747426267605	274
1	1094	136.747426267605	275
1	1094	136.747426267605	276
1	1106	138.604845402067	277
1	1106	138.604845402067	278
1	1106	138.604845402067	279
1	1118	140.54533860727	280
1	1118	140.54533860727	281
1	1118	140.54533860727	282
1	1130	142.317932931448	283
1	1130	142.317932931448	284
1	1130	142.317932931448	285
1	1142	144.153653123826	286
1	1142	144.153653123826	287
1	1142	144.153653123826	288
1	1154	145.978399427545	289
1	1154	145.978399427545	290
1	1154	145.978399427545	291
1	1166	147.411407720854	292
1	1166	147.411407720854	293
1	1166	147.411407720854	294
1	1178	148.581657561555	295
1	1178	148.581657561555	296
1	1178	148.581657561555	297
1	1190	150.403506831299	298
1	1190	150.403506831299	299
1	1190	150.403506831299	300
1	1202	151.851734995143	301
1	1202	151.851734995143	302
1	1202	151.851734995143	303
1	1214	153.728202079434	304
1	1214	153.728202079434	305
1	1214	153.728202079434	306
1	1226	155.694138810194	307
1	1226	155.694138810194	308
1	1226	155.694138810194	309
1	1238	157.539652543845	310
1	1238	157.539652543845	311
1	1238	157.539652543845	312
1	1250	159.345980724704	313
1	1250	159.345980724704	314
1	1250	159.345980724704	315
1	1262	161.294496045729	316
1	1262	161.294496045729	317
1	1262	161.294496045729	318
1	1274	163.22539660196	319
1	1274	163.22539660196	320
1	1274	163.22539660196	321
1	1286	165.102891119664	322
1	1286	165.102891119664	323
1	1286	165.102891119664	324
1	1298	166.456537921565	325
1	1298	166.456537921565	326
1	1298	166.456537921565	327
1	1310	167.801659714143	328
1	1310	167.801659714143	329
1	1310	167.801659714143	330
1	1322	168.92634188366	331
1	1322	168.92634188366	332
1	1322	168.92634188366	333
1	1334	170.680073343018	334
1	1334	170.680073343018	335
1	1334	170.680073343018	336
1	1346	171.948704704569	337
1	1346	171.948704704569	338
1	1346	171.948704704569	339
1	1358	173.086886081227	340
1	1358	173.086886081227	341
1	1358	173.086886081227	342
1	1370	174.973342732782	343
1	1370	174.973342732782	344
1	1370	174.973342732782	345
1	1382	176.60341211085	346
1	1382	176.60341211085	347
1	1382	176.60341211085	348
1	1394	177.778067593442	349
1	1394	177.778067593442	350
1	1394	177.778067593442	351
1	1406	179.608783462516	352
1	1406	179.608783462516	353
1	1406	179.608783462516	354
1	1418	180.684041158797	355
1	1418	180.684041158797	356
1	1418	180.684041158797	357
1	1430	182.032456985159	358
1	1430	182.032456985159	359
1	1430	182.032456985159	360
1	1442	184.093048599794	361
1	1442	184.093048599794	362
1	1442	184.093048599794	363
1	1454	185.592726453276	364
1	1454	185.592726453276	365
1	1454	185.592726453276	366
1	1466	186.666039857568	367
1	1466	186.666039857568	368
1	1466	186.666039857568	369
1	1478	187.995243762964	370
1	1478	187.995243762964	371
1	1478	187.995243762964	372
1	1490	188.952322684896	373
1	1490	188.952322684896	374
1	1490	188.952322684896	375
1	1502	190.016149460228	376
1	1502	190.016149460228	377
1	1502	190.016149460228	378
1	1514	192.019104020779	379
1	1514	192.019104020779	380
1	1514	192.019104020779	381
1	1526	193.337535013924	382
1	1526	193.337535013924	383
1	1526	193.337535013924	384
1	1538	194.556605393485	385
1	1538	194.556605393485	386
1	1538	194.556605393485	387
1	1550	195.672350533253	388
1	1550	195.672350533253	389
1	1550	195.672350533253	390
1	1562	197.522905606904	391
1	1562	197.522905606904	392
1	1562	197.522905606904	393
1	1574	199.252966120085	394
1	1574	199.252966120085	395
1	1574	199.252966120085	396
1	1586	200.738524205498	397
1	1586	200.738524205498	398
1	1586	200.738524205498	399
1	1598	201.634970625042	400
1	1598	201.634970625042	401
1	1598	201.634970625042	402
1	1610	202.729893932647	403
1	1610	202.729893932647	404
1	1610	202.729893932647	405
1	1622	204.040925576961	406
1	1622	204.040925576961	407
1	1622	204.040925576961	408
1	1634	205.706618820121	409
1	1634	205.706618820121	410
1	1634	205.706618820121	411
1	1646	207.625558703429	412
1	1646	207.625558703429	413
1	1646	207.625558703429	414
1	1658	209.250599137193	415
1	1658	209.250599137193	416
1	1658	209.250599137193	417
1	1670	211.104245412259	418
1	1670	211.104245412259	419
1	1670	211.104245412259	420
1	1682	212.222823361908	421
1	1682	212.222823361908	422
1	1682	212.222823361908	423
1	1694	213.994900060917	424
1	1694	213.994900060917	425
1	1694	213.994900060917	426
1	1706	215.747390061985	427
1	1706	215.747390061985	428
1	1706	215.747390061985	429
1	1718	217.107619369966	430
1	1718	217.107619369966	431
1	1718	217.107619369966	432
1	1730	218.295318150658	433
1	1730	218.295318150658	434
1	1730	218.295318150658	435
1	1742	220.09200321141	436
1	1742	220.09200321141	437
1	1742	220.09200321141	438
1	1754	221.908899457858	439
1	1754	221.908899457858	440
1	1754	221.908899457858	441
1	1766	223.269239339077	442
1	1766	223.269239339077	443
1	1766	223.269239339077	444
1	1778	224.373439176796	445
1	1778	224.373439176796	446
1	1778	224.373439176796	447
1	1790	225.979458648459	448
1	1790	225.979458648459	449
1	1790	225.979458648459	450
1	1802	227.060092019566	451
1	1802	227.060092019566	452
1	1802	227.060092019566	453
1	1814	228.173331874431	454
1	1814	228.173331874431	455
1	1814	228.173331874431	456
1	1826	230.021745495474	457
1	1826	230.021745495474	458
1	1826	230.021745495474	459
1	1838	231.552338781741	460
1	1838	231.552338781741	461
1	1838	231.552338781741	462
1	1850	233.306518368435	463
1	1850	233.306518368435	464
1	1850	233.306518368435	465
1	1862	234.910437704162	466
1	1862	234.910437704162	467
1	1862	234.910437704162	468
1	1874	236.855928109737	469
1	1874	236.855928109737	470
1	1874	236.855928109737	471
1	1886	238.609952344869	472
1	1886	238.609952344869	473
1	1886	238.609952344869	474
1	1898	239.730599820518	475
1	1898	239.730599820518	476
1	1898	239.730599820518	477
2	2	0.47485374568	1
2	6	0.88429991805	2
2	8	0.963237261257	3
2	14	1.959715655977	4
2	18	2.324339131434	5
2	21	2.410880539219	6
2	26	3.893511888278	7
2	31	4.241893237902	8
2	32	4.336710341049	9
2	38	5.587044510648	10
2	43	5.952478621593	11
2	44	5.968314763482	12
2	50	6.805291867657	13
2	54	7.102464522638	14
2	56	7.178891765979	15
2	62	8.371268682298	16
2	66	8.730434143282	17
2	68	8.825921211217	18
2	74	10.286596838822	19
2	80	10.654272682124	20
2	83	10.706566187616	21
2	86	11.4246189604	22
2	89	11.669591955253	23
2	93	11.812138671677	24
2	98	12.731285735429	25
2	102	13.0298620685	26
2	103	13.048808937654	27
2	110	14.60493278639	28
2	115	15.017769903343	29
2	116	15.023027333443	30
2	122	15.796089739763	31
2	128	16.18396312836	32
2	129	16.187245866699	33
2	134	16.856205928154	34
2	136	17.090826937047	35
2	141	17.364353907293	36
2	146	18.723860755831	37
2	150	19.034736236409	38
2	153	19.259200659486	39
2	158	19.972557457886	40
2	162	20.304763140998	41
2	166	20.551446290878	42
2	170	21.643095036191	43
2	175	22.058443097556	44
2	177	22.082354045902	45
2	182	23.542770589539	46
2	185	23.796557559781	47
2	188	23.990934503845	48
2	194	25.586182935745	49
2	199	25.832476632823	50
2	200	25.871158951853	51
2	206	26.804972816074	52
2	210	27.177615373194	53
2	211	27.216878546289	54
2	218	28.741029304328	55
2	224	29.0589333854	56
2	225	29.132531542323	57
2	230	29.963600694541	58
2	235	30.280156585599	59
2	236	30.374651736847	60
2	242	31.20760377121	61
2	248	31.707589888813	62
2	249	31.730561980997	63
2	254	32.980927874461	64
2	258	33.256868074845	65
2	260	33.374331828974	66
2	266	34.10213869819	67
2	271	34.477809587817	68
2	273	34.544150559986	69
2	278	35.312523852357	70
2	282	35.703818926621	71
2	284	35.800081935956	72
2	290	36.526211792175	73
2	296	36.85794977091	74
2	298	36.954884997092	75
2	302	37.984153525239	76
2	308	38.408404612551	77
2	309	38.463481046053	78
2	314	39.267574287575	79
2	318	39.614053360143	80
2	322	39.798690775324	81
2	326	41.127912559017	82
2	331	41.595764495166	83
2	333	41.665552719014	84
2	338	42.572602427829	85
2	342	42.896135044253	86
2	344	42.948939842399	87
2	350	44.454473161657	88
2	354	44.723411633591	89
2	356	44.787668682366	90
2	362	45.842922165325	91
2	366	46.254355397598	92
2	368	46.282305532641	93
2	374	47.450882670299	94
2	378	47.830817402831	95
2	380	47.985939875247	96
2	386	48.745852881783	97
2	391	49.179202168334	98
2	393	49.207923450592	99
2	398	49.868965917529	100
2	403	50.203583575665	101
2	405	50.385687219586	102
2	410	51.47332657401	103
2	414	51.844016859939	104
2	417	51.999345898433	105
2	422	53.408909045785	106
2	427	53.734880118348	107
2	428	53.780316739265	108
2	434	54.650399822384	109
2	439	54.960046940158	110
2	441	55.042408670991	111
2	446	56.395375544898	112
2	452	56.765055156374	113
2	453	56.787391641253	114
2	458	58.061812757124	115
2	466	58.50982424873	116
2	468	58.546094469844	117
2	470	59.203325147897	118
2	473	59.450263560759	119
2	480	59.762677000862	120
2	482	60.810479349712	121
2	486	61.161440388792	122
2	488	61.19557291774	123
2	494	62.177101327615	124
2	498	62.501540852928	125
2	501	62.676999014696	126
2	506	63.7473704624	127
2	511	64.134167242414	128
2	512	64.165986150995	129
2	518	65.093406213801	130
2	524	65.631859209985	131
2	525	65.667115248011	132
2	530	66.442385467672	133
2	536	66.783917517782	134
2	537	66.799596801113	135
2	542	68.079000666823	136
2	547	68.577972745953	137
2	548	68.584814922646	138
2	554	69.292389344765	139
2	559	69.659223612867	140
2	562	69.799613011723	141
2	566	71.176430917633	142
2	570	71.478755760095	143
2	572	71.537008000935	144
2	578	72.544614020213	145
2	583	72.936335992293	146
2	585	73.032352332328	147
2	590	74.342344165342	148