version 3
run General-3-20231017-23:02:21-11995
attr configname General
attr datetime 20231017-23:02:21
attr datetimef 20231017-230221
attr experiment General
attr inifile omnetpp.ini
attr iterationvars ""
attr iterationvarsd ""
attr iterationvarsf ""
attr measurement ""
attr network Reliability
attr processid 11995
attr repetition 3
attr replication #3
attr resultdir results
attr runnumber 3
attr seedset 3
config network Reliability
config Reliability.node[*].transmissionTime "uniform(1s, 2s)"
config Reliability.node[*].delayTime "uniform(0.01s, 0.2s)"
config Reliability.node[*].lossProbability 0.7
config record-eventlog true
config sim-time-limit 240s
config repeat 5

vector 0 Reliability.node[0] txVector ETV
vector 1 Reliability.node[1] txVector ETV
vector 2 Reliability.node[1] rxVector ETV
vector 3 Reliability.node[0] rxVector ETV
vector 4 Reliability.node[3] txVector ETV
vector 5 Reliability.node[3] rxVector ETV
vector 6 Reliability.node[2] txVector ETV
vector 7 Reliability.node[2] rxVector ETV
vector 8 Reliability.node[4] txVector ETV
vector 9 Reliability.node[4] rxVector ETV
vector 10 Reliability.node[5] rxVector ETV
0	1	0.114651601831	1
0	1	0.114651601831	1
0	1	0.114651601831	1
0	6	1.822799424012	2
0	6	1.822799424012	2
0	6	1.822799424012	2
0	8	2.841547434288	3
0	8	2.841547434288	3
0	8	2.841547434288	3
0	10	4.048790312908	4
0	10	4.048790312908	4
0	10	4.048790312908	4
0	12	5.142341808486	5
0	12	5.142341808486	5
0	12	5.142341808486	5
0	14	6.172218021075	6
0	14	6.172218021075	6
0	14	6.172218021075	6
0	16	7.62539032062	7
0	16	7.62539032062	7
0	16	7.62539032062	7
0	18	8.903877604589	8
0	18	8.903877604589	8
0	18	8.903877604589	8
0	20	10.396513525698	9
0	20	10.396513525698	9
0	20	10.396513525698	9
0	25	11.420495408889	10
0	25	11.420495408889	10
0	25	11.420495408889	10
0	27	12.726856035948	11
0	27	12.726856035948	11
0	27	12.726856035948	11
0	29	14.167309758555	12
0	29	14.167309758555	12
0	29	14.167309758555	12
0	31	15.621917523512	13
0	31	15.621917523512	13
0	31	15.621917523512	13
0	43	17.402232285424	14
0	43	17.402232285424	14
0	43	17.402232285424	14
0	48	19.055643183713	15
0	48	19.055643183713	15
0	48	19.055643183713	15
0	50	20.618413280065	16
0	50	20.618413280065	16
0	50	20.618413280065	16
0	52	21.887648860293	17
0	52	21.887648860293	17
0	52	21.887648860293	17
0	54	23.091003389165	18
0	54	23.091003389165	18
0	54	23.091003389165	18
0	56	24.9515373009	19
0	56	24.9515373009	19
0	56	24.9515373009	19
0	58	26.82260935155	20
0	58	26.82260935155	20
0	58	26.82260935155	20
0	60	28.100586860741	21
0	60	28.100586860741	21
0	60	28.100586860741	21
0	62	29.175786974442	22
0	62	29.175786974442	22
0	62	29.175786974442	22
0	64	30.377165688735	23
0	64	30.377165688735	23
0	64	30.377165688735	23
0	66	32.218206848551	24
0	66	32.218206848551	24
0	66	32.218206848551	24
0	68	33.701792381771	25
0	68	33.701792381771	25
0	68	33.701792381771	25
0	73	35.06413284044	26
0	73	35.06413284044	26
0	73	35.06413284044	26
0	78	36.437732959234	27
0	78	36.437732959234	27
0	78	36.437732959234	27
0	80	37.959337296032	28
0	80	37.959337296032	28
0	80	37.959337296032	28
0	82	39.020866224843	29
0	82	39.020866224843	29
0	82	39.020866224843	29
0	87	40.827888899784	30
0	87	40.827888899784	30
0	87	40.827888899784	30
0	89	42.551828036386	31
0	89	42.551828036386	31
0	89	42.551828036386	31
0	91	44.469858058797	32
0	91	44.469858058797	32
0	91	44.469858058797	32
0	101	45.536827481421	33
0	101	45.536827481421	33
0	101	45.536827481421	33
0	103	47.218439262895	34
0	103	47.218439262895	34
0	103	47.218439262895	34
0	110	48.580089880455	35
0	110	48.580089880455	35
0	110	48.580089880455	35
0	112	50.422193068381	36
0	112	50.422193068381	36
0	112	50.422193068381	36
0	114	52.194931751884	37
0	114	52.194931751884	37
0	114	52.194931751884	37
0	121	54.108907013967	38
0	121	54.108907013967	38
0	121	54.108907013967	38
0	128	55.311784662142	39
0	128	55.311784662142	39
0	128	55.311784662142	39
0	130	57.239721012137	40
0	130	57.239721012137	40
0	130	57.239721012137	40
0	132	58.508528340909	41
0	132	58.508528340909	41
0	132	58.508528340909	41
0	134	59.96380769864	42
0	134	59.96380769864	42
0	134	59.96380769864	42
0	136	61.536045318537	43
0	136	61.536045318537	43
0	136	61.536045318537	43
0	138	62.609668983214	44
0	138	62.609668983214	44
0	138	62.609668983214	44
0	140	63.730286350774	45
0	140	63.730286350774	45
0	140	63.730286350774	45
0	145	64.873618665219	46
0	145	64.873618665219	46
0	145	64.873618665219	46
0	147	66.125360175802	47
0	147	66.125360175802	47
0	147	66.125360175802	47
0	154	67.604338474174	48
0	154	67.604338474174	48
0	154	67.604338474174	48
0	156	68.73399685819	49
0	156	68.73399685819	49
0	156	68.73399685819	49
0	158	70.693704048705	50
0	158	70.693704048705	50
0	158	70.693704048705	50
0	163	72.518035443102	51
0	163	72.518035443102	51
0	163	72.518035443102	51
0	173	74.413605772492	52
0	173	74.413605772492	52
0	173	74.413605772492	52
0	178	76.140757844618	53
0	178	76.140757844618	53
0	178	76.140757844618	53
0	180	77.790331103208	54
0	180	77.790331103208	54
0	180	77.790331103208	54
0	192	79.667543138445	55
0	192	79.667543138445	55
0	192	79.667543138445	55
0	197	81.150040176998	56
0	197	81.150040176998	56
0	197	81.150040176998	56
0	199	83.078539023477	57
0	199	83.078539023477	57
0	199	83.078539023477	57
0	204	84.910300113329	58
0	204	84.910300113329	58
0	204	84.910300113329	58
0	206	86.353887792279	59
0	206	86.353887792279	59
0	206	86.353887792279	59
0	216	87.44945460751	60
0	216	87.44945460751	60
0	216	87.44945460751	60
0	220	89.290015699177	61
0	220	89.290015699177	61
0	220	89.290015699177	61
0	225	90.512392018757	62
0	225	90.512392018757	62
0	225	90.512392018757	62
0	227	92.490344431552	63
0	227	92.490344431552	63
0	227	92.490344431552	63
0	232	93.858824696693	64
0	232	93.858824696693	64
0	232	93.858824696693	64
0	237	95.743066125152	65
0	237	95.743066125152	65
0	237	95.743066125152	65
0	239	97.163332620937	66
0	239	97.163332620937	66
0	239	97.163332620937	66
0	246	98.347104936907	67
0	246	98.347104936907	67
0	246	98.347104936907	67
0	248	99.745241848122	68
0	248	99.745241848122	68
0	248	99.745241848122	68
0	250	101.020750322215	69
0	250	101.020750322215	69
0	250	101.020750322215	69
0	252	102.612276327166	70
0	252	102.612276327166	70
0	252	102.612276327166	70
0	254	103.835599304944	71
0	254	103.835599304944	71
0	254	103.835599304944	71
0	256	105.067697694361	72
0	256	105.067697694361	72
0	256	105.067697694361	72
0	258	106.06844321459	73
0	258	106.06844321459	73
0	258	106.06844321459	73
0	260	108.010357578121	74
0	260	108.010357578121	74
0	260	108.010357578121	74
0	262	109.172878269641	75
0	262	109.172878269641	75
0	262	109.172878269641	75
0	269	110.447230435511	76
0	269	110.447230435511	76
0	269	110.447230435511	76
0	271	111.81921074523	77
0	271	111.81921074523	77
0	271	111.81921074523	77
0	273	113.595972779508	78
0	273	113.595972779508	78
0	273	113.595972779508	78
0	275	114.823685677558	79
0	275	114.823685677558	79
0	275	114.823685677558	79
0	277	116.584326821215	80
0	277	116.584326821215	80
0	277	116.584326821215	80
0	279	117.994647028226	81
0	279	117.994647028226	81
0	279	117.994647028226	81
0	281	118.995125843746	82
0	281	118.995125843746	82
0	281	118.995125843746	82
0	283	120.140415802201	83
0	283	120.140415802201	83
0	283	120.140415802201	83
0	285	121.909549493644	84
0	285	121.909549493644	84
0	285	121.909549493644	84
0	287	123.521143330097	85
0	287	123.521143330097	85
0	287	123.521143330097	85
0	289	124.847407335484	86
0	289	124.847407335484	86
0	289	124.847407335484	86
0	291	125.85167377612	87
0	291	125.85167377612	87
0	291	125.85167377612	87
0	298	127.35359711952	88
0	298	127.35359711952	88
0	298	127.35359711952	88
0	308	129.089290506974	89
0	308	129.089290506974	89
0	308	129.089290506974	89
0	313	130.535204617376	90
0	313	130.535204617376	90
0	313	130.535204617376	90
0	315	131.726487908582	91
0	315	131.726487908582	91
0	315	131.726487908582	91
0	317	133.597977453912	92
0	317	133.597977453912	92
0	317	133.597977453912	92
0	319	134.650952474283	93
0	319	134.650952474283	93
0	319	134.650952474283	93
0	324	135.902882775361	94
0	324	135.902882775361	94
0	324	135.902882775361	94
0	326	137.811240795603	95
0	326	137.811240795603	95
0	326	137.811240795603	95
0	333	139.546564978616	96
0	333	139.546564978616	96
0	333	139.546564978616	96
0	338	140.778348901611	97
0	338	140.778348901611	97
0	338	140.778348901611	97
0	345	142.640953986276	98
0	345	142.640953986276	98
0	345	142.640953986276	98
0	347	144.189282003161	99
0	347	144.189282003161	99
0	347	144.189282003161	99
0	349	145.262199092726	100
0	349	145.262199092726	100
0	349	145.262199092726	100
0	351	147.053389841527	101
0	351	147.053389841527	101
0	351	147.053389841527	101
0	353	148.728199777728	102
0	353	148.728199777728	102
0	353	148.728199777728	102
0	358	150.357041929452	103
0	358	150.357041929452	103
0	358	150.357041929452	103
0	363	152.00768410142	104
0	363	152.00768410142	104
0	363	152.00768410142	104
0	365	153.186684550554	105
0	365	153.186684550554	105
0	365	153.186684550554	105
0	367	154.877648254227	106
0	367	154.877648254227	106
0	367	154.877648254227	106
0	369	156.290079320617	107
0	369	156.290079320617	107
0	369	156.290079320617	107
0	371	157.39221354674	108
0	371	157.39221354674	108
0	371	157.39221354674	108
0	373	159.114655749243	109
0	373	159.114655749243	109
0	373	159.114655749243	109
0	375	160.32436218888	110
0	375	160.32436218888	110
0	375	160.32436218888	110
0	377	161.488961736974	111
0	377	161.488961736974	111
0	377	161.488961736974	111
0	379	163.059169980767	112
0	379	163.059169980767	112
0	379	163.059169980767	112
0	381	164.666513715009	113
0	381	164.666513715009	113
0	381	164.666513715009	113
0	388	166.557968309219	114
0	388	166.557968309219	114
0	388	166.557968309219	114
0	393	168.30778875628	115
0	393	168.30778875628	115
0	393	168.30778875628	115
0	395	169.356845085346	116
0	395	169.356845085346	116
0	395	169.356845085346	116
0	402	170.995475428481	117
0	402	170.995475428481	117
0	402	170.995475428481	117
0	404	172.934878907934	118
0	404	172.934878907934	118
0	404	172.934878907934	118
0	406	174.473484233091	119
0	406	174.473484233091	119
0	406	174.473484233091	119
0	408	175.52426421463	120
0	408	175.52426421463	120
0	408	175.52426421463	120
0	410	177.12506279659	121
0	410	177.12506279659	121
0	410	177.12506279659	121
0	412	179.108224584558	122
0	412	179.108224584558	122
0	412	179.108224584558	122
0	414	181.022704321728	123
0	414	181.022704321728	123
0	414	181.022704321728	123
0	421	182.064319961308	124
0	421	182.064319961308	124
0	421	182.064319961308	124
0	423	184.019764334731	125
0	423	184.019764334731	125
0	423	184.019764334731	125
0	425	185.412236248911	126
0	425	185.412236248911	126
0	425	185.412236248911	126
0	430	187.409973777434	127
0	430	187.409973777434	127
0	430	187.409973777434	127
0	435	188.834121025236	128
0	435	188.834121025236	128
0	435	188.834121025236	128
0	437	189.894934683408	129
0	437	189.894934683408	129
0	437	189.894934683408	129
0	439	190.9171665719	130
0	439	190.9171665719	130
0	439	190.9171665719	130
0	441	191.954303525923	131
0	441	191.954303525923	131
0	441	191.954303525923	131
0	443	193.557603788631	132
0	443	193.557603788631	132
0	443	193.557603788631	132
0	445	194.982958241668	133
0	445	194.982958241668	133
0	445	194.982958241668	133
0	447	196.274889424047	134
0	447	196.274889424047	134
0	447	196.274889424047	134
0	452	198.014882494299	135
0	452	198.014882494299	135
0	452	198.014882494299	135
0	454	199.027965304278	136
0	454	199.027965304278	136
0	454	199.027965304278	136
0	456	200.130950216273	137
0	456	200.130950216273	137
0	456	200.130950216273	137
0	458	201.512775256135	138
0	458	201.512775256135	138
0	458	201.512775256135	138
0	460	203.130867620534	139
0	460	203.130867620534	139
0	460	203.130867620534	139
0	465	204.846749594738	140
0	465	204.846749594738	140
0	465	204.846749594738	140
0	467	206.558804027108	141
0	467	206.558804027108	141
0	467	206.558804027108	141
0	469	207.922437893064	142
0	469	207.922437893064	142
0	469	207.922437893064	142
0	471	209.853059405531	143
0	471	209.853059405531	143
0	471	209.853059405531	143
0	473	211.387699911441	144
0	473	211.387699911441	144
0	473	211.387699911441	144
0	475	212.431815132103	145
0	475	212.431815132103	145
0	475	212.431815132103	145
0	477	213.959820328583	146
0	477	213.959820328583	146
0	477	213.959820328583	146
0	482	215.048601341736	147
0	482	215.048601341736	147
0	482	215.048601341736	147
0	484	216.922108443756	148
0	484	216.922108443756	148
0	484	216.922108443756	148
0	491	218.635379694937	149
0	491	218.635379694937	149
0	491	218.635379694937	149
0	493	220.319681365811	150
0	493	220.319681365811	150
0	493	220.319681365811	150
0	495	221.916303171147	151
0	495	221.916303171147	151
0	495	221.916303171147	151
0	497	223.371729742106	152
0	497	223.371729742106	152
0	497	223.371729742106	152
0	499	225.07065913251	153
0	499	225.07065913251	153
0	499	225.07065913251	153
0	501	226.215555890532	154
0	501	226.215555890532	154
0	501	226.215555890532	154
0	508	227.662195110064	155
0	508	227.662195110064	155
0	508	227.662195110064	155
0	513	228.723243178403	156
0	513	228.723243178403	156
0	513	228.723243178403	156
0	518	230.046010547852	157
0	518	230.046010547852	157
0	518	230.046010547852	157
0	520	231.551607510377	158
0	520	231.551607510377	158
0	520	231.551607510377	158
0	529	233.097522961045	159
0	529	233.097522961045	159
0	529	233.097522961045	159
0	531	234.903069296688	160
0	531	234.903069296688	160
0	531	234.903069296688	160
0	536	236.769057863927	161
0	536	236.769057863927	161
0	536	236.769057863927	161
0	538	237.876908960123	162
0	538	237.876908960123	162
0	538	237.876908960123	162
0	540	239.669315256015	163
0	540	239.669315256015	163
0	540	239.669315256015	163
1	2	0.238089329092	1
1	2	0.238089329092	2
1	2	0.238089329092	3
1	21	10.680040801723	4
1	21	10.680040801723	5
1	21	10.680040801723	6
1	32	15.875873920169	7
1	32	15.875873920169	8
1	32	15.875873920169	9
1	44	17.590838835317	10
1	44	17.590838835317	11
1	44	17.590838835317	12
1	69	33.88060586285	13
1	69	33.88060586285	14
1	69	33.88060586285	15
1	74	35.234226901822	16
1	74	35.234226901822	17
1	74	35.234226901822	18
1	83	39.176974554933	19
1	83	39.176974554933	20
1	83	39.176974554933	21
1	92	44.619181624571	22
1	92	44.619181624571	23
1	92	44.619181624571	24
1	104	47.431233000808	25
1	104	47.431233000808	26
1	104	47.431233000808	27
1	115	52.4752661169	28
1	115	52.4752661169	29
1	115	52.4752661169	30
1	122	54.356784242625	31
1	122	54.356784242625	32
1	122	54.356784242625	33
1	141	63.847680789344	34
1	141	63.847680789344	35
1	141	63.847680789344	36
1	148	66.405930211358	37
1	148	66.405930211358	38
1	148	66.405930211358	39
1	159	70.906448607431	40
1	159	70.906448607431	41
1	159	70.906448607431	42
1	164	72.717461979548	43
1	164	72.717461979548	44
1	164	72.717461979548	45
1	174	74.630193163254	46
1	174	74.630193163254	47
1	174	74.630193163254	48
1	181	77.959223813799	49
1	181	77.959223813799	50
1	181	77.959223813799	51
1	193	79.831940922833	52
1	193	79.831940922833	53
1	193	79.831940922833	54
1	200	83.257523516608	55
1	200	83.257523516608	56
1	200	83.257523516608	57
1	207	86.586072038259	58
1	207	86.586072038259	59
1	207	86.586072038259	60
1	221	89.410587592901	61
1	221	89.410587592901	62
1	221	89.410587592901	63
1	228	92.695867130619	64
1	228	92.695867130619	65
1	228	92.695867130619	66
1	233	94.037430613954	67
1	233	94.037430613954	68
1	233	94.037430613954	69
1	240	97.297238618495	70
1	240	97.297238618495	71
1	240	97.297238618495	72
1	263	109.41198361312	73
1	263	109.41198361312	74
1	263	109.41198361312	75
1	292	126.008515514935	76
1	292	126.008515514935	77
1	292	126.008515514935	78
1	299	127.564980157164	79
1	299	127.564980157164	80
1	299	127.564980157164	81
1	309	129.219381391782	82
1	309	129.219381391782	83
1	309	129.219381391782	84
1	320	134.916043631541	85
1	320	134.916043631541	86
1	320	134.916043631541	87
1	327	138.057264778506	88
1	327	138.057264778506	89
1	327	138.057264778506	90
1	334	139.783634618724	91
1	334	139.783634618724	92
1	334	139.783634618724	93
1	339	141.073588184353	94
1	339	141.073588184353	95
1	339	141.073588184353	96
1	354	148.988462072237	97
1	354	148.988462072237	98
1	354	148.988462072237	99
1	359	150.575557698469	100
1	359	150.575557698469	101
1	359	150.575557698469	102
1	382	164.958158114683	103
1	382	164.958158114683	104
1	382	164.958158114683	105
1	389	166.846111360595	106
1	389	166.846111360595	107
1	389	166.846111360595	108
1	396	169.524380853867	109
1	396	169.524380853867	110
1	396	169.524380853867	111
1	415	181.302074819757	112
1	415	181.302074819757	113
1	415	181.302074819757	114
1	426	185.7120345524	115
1	426	185.7120345524	116
1	426	185.7120345524	117
1	431	187.681685246363	118
1	431	187.681685246363	119
1	431	187.681685246363	120
1	448	196.440375500978	121
1	448	196.440375500978	122
1	448	196.440375500978	123
1	461	203.409742285656	124
1	461	203.409742285656	125
1	461	203.409742285656	126
1	478	214.197758660924	127
1	478	214.197758660924	128
1	478	214.197758660924	129
1	485	217.101038148919	130
1	485	217.101038148919	131
1	485	217.101038148919	132
1	502	226.452187228889	133
1	502	226.452187228889	134
1	502	226.452187228889	135
1	509	227.790145946999	136
1	509	227.790145946999	137
1	509	227.790145946999	138
1	514	228.995391310648	139
1	514	228.995391310648	140
1	514	228.995391310648	141
1	521	231.735992844488	142
1	521	231.735992844488	143
1	521	231.735992844488	144
1	532	235.190122950328	145
1	532	235.190122950328	146
1	532	235.190122950328	147
2	2	0.238089329092	1
2	21	10.680040801723	2
2	32	15.875873920169	3
2	44	17.590838835317	4
2	69	33.88060586285	5
2	74	35.234226901822	6
2	83	39.176974554933	7
2	92	44.619181624571	8
2	104	47.431233000808	9
2	108	47.857129806642	10
2	115	52.4752661169	11
2	122	54.356784242625	12
2	141	63.847680789344	13
2	148	66.405930211358	14
2	159	70.906448607431	15
2	164	72.717461979548	16
2	174	74.630193163254	17
2	181	77.959223813799	18
2	193	79.831940922833	19
2	200	83.257523516608	20
2	207	86.586072038259	21
2	221	89.410587592901	22
2	228	92.695867130619	23
2	233	94.037430613954	24
2	240	97.297238618495	25
2	263	109.41198361312	26
2	292	126.008515514935	27
2	299	127.564980157164	28
2	304	128.036304462254	29
2	309	129.219381391782	30
2	320	134.916043631541	31
2	327	138.057264778506	32
2	331	138.42756436258	33
2	334	139.783634618724	34
2	339	141.073588184353	35
2	344	141.546291607357	36
2	354	148.988462072237	37
2	359	150.575557698469	38
2	382	164.958158114683	39
2	389	166.846111360595	40
2	396	169.524380853867	41
2	415	181.302074819757	42
2	426	185.7120345524	43
2	431	187.681685246363	44
2	448	196.440375500978	45
2	461	203.409742285656	46
2	478	214.197758660924	47
2	485	217.101038148919	48
2	502	226.452187228889	49
2	509	227.790145946999	50
2	514	228.995391310648	51
2	521	231.735992844488	52
2	532	235.190122950328	53
3	4	0.403361230375	1
3	71	34.088663840538	2
3	77	35.471172514781	3
3	107	47.641194090717	4
3	118	52.705662574769	5
3	167	72.892192791468	6
3	182	78.098434453034	7
3	195	79.996480378139	8
3	230	92.855728326729	9
3	295	126.270704799384	10
3	302	127.795184753385	11
3	311	129.456979739029	12
3	337	140.063952326165	13
3	361	150.788761794517	14
3	392	167.001677874818	15
3	399	169.743613384077	16
3	429	185.99090139915	17
3	434	187.9093574277	18
3	451	196.707491660167	19
3	463	203.598095012505	20
3	535	235.391889595997	21
4	33	16.028045918179	1
4	33	16.028045918179	2
4	123	54.612353266276	3
4	123	54.612353266276	4
4	187	78.598531731349	5
4	187	78.598531731349	6
4	214	87.253440949154	7
4	214	87.253440949154	8
4	243	97.501817356666	9
4	243	97.501817356666	10
4	294	126.13188576921	11
4	294	126.13188576921	12
4	300	127.763461840304	13
4	300	127.763461840304	14
4	330	138.262372233238	15
4	330	138.262372233238	16
4	342	141.291489597207	17
4	342	141.291489597207	18
4	385	165.209634289167	19
4	385	165.209634289167	20
4	417	181.448696744785	21
4	417	181.448696744785	22
4	486	217.27120787945	23
4	486	217.27120787945	24
4	505	226.737721906076	25
4	505	226.737721906076	26
4	524	232.027280970525	27
4	524	232.027280970525	28
5	33	16.028045918179	1
5	123	54.612353266276	2
5	187	78.598531731349	3
5	214	87.253440949154	4
5	243	97.501817356666	5
5	294	126.13188576921	6
5	300	127.763461840304	7
5	305	128.054949813732	8
5	330	138.262372233238	9
5	342	141.291489597207	10
5	385	165.209634289167	11
5	417	181.448696744785	12
5	486	217.27120787945	13
5	505	226.737721906076	14
5	524	232.027280970525	15
6	34	16.034815125602	1
6	34	16.034815125602	2
6	95	44.781873003886	3
6	95	44.781873003886	4
6	105	47.591371468174	5
6	105	47.591371468174	6
6	116	52.639113517572	7
6	116	52.639113517572	8
6	149	66.54373029361	9
6	149	66.54373029361	10
6	166	72.892063105328	11
6	166	72.892063105328	12
6	183	78.16359015517	13
6	183	78.16359015517	14
6	209	86.846886869849	15
6	209	86.846886869849	16
6	265	109.631834652009	17
6	265	109.631834652009	18
6	397	169.641859529036	19
6	397	169.641859529036	20
6	523	231.964484028631	21
6	523	231.964484028631	22
7	34	16.034815125602	1
7	95	44.781873003886	2
7	100	45.238599389969	3
7	105	47.591371468174	4
7	116	52.639113517572	5
7	149	66.54373029361	6
7	166	72.892063105328	7
7	172	73.328396041266	8
7	183	78.16359015517	9
7	188	78.607137327439	10
7	209	86.846886869849	11
7	213	87.194156273851	12
7	265	109.631834652009	13
7	397	169.641859529036	14
7	523	231.964484028631	15
8	38	16.274546102969	1
8	38	16.274546102969	2
8	38	16.274546102969	3
8	97	45.023476621002	4
8	97	45.023476621002	5
8	97	45.023476621002	6
8	168	73.057328869985	7
8	168	73.057328869985	8
8	168	73.057328869985	9
8	186	78.458198771263	10
8	186	78.458198771263	11
8	186	78.458198771263	12
8	211	87.000745760734	13
8	211	87.000745760734	14
8	211	87.000745760734	15
8	303	127.936956604912	16
8	303	127.936956604912	17
8	303	127.936956604912	18
9	38	16.274546102969	1
9	97	45.023476621002	2
9	168	73.057328869985	3
9	186	78.458198771263	4
9	211	87.000745760734	5
9	303	127.936956604912	6
10	40	16.460354384635	1
10	99	45.169161437749	2
10	170	73.182827368067	3
10	189	78.613907131055	4
10	215	87.27304958304	5
10	307	128.209714055031	6

