version 3
run General-0-20231011-14:56:01-8718
attr configname General
attr datetime 20231011-14:56:01
attr datetimef 20231011-145601
attr experiment General
attr inifile omnetpp.ini
attr iterationvars ""
attr iterationvarsd ""
attr iterationvarsf ""
attr measurement ""
attr network Reliability
attr processid 8718
attr repetition 0
attr replication #0
attr resultdir results
attr runnumber 0
attr seedset 0
config network Reliability
config Reliability.node[*].transmissionTime "uniform(1s, 2s)"
config Reliability.node[*].delayTime "uniform(0.01s, 0.2s)"
config Reliability.node[*].lossProbability 0.2
config record-eventlog true
config sim-time-limit 240s
config repeat 5

vector 0 Reliability.node[0] txVector ETV
vector 1 Reliability.node[0] rxVector ETV
vector 2 Reliability.node[1] rxVector ETV
vector 3 Reliability.node[1] txVector ETV
vector 4 Reliability.node[2] rxVector ETV
vector 5 Reliability.node[2] txVector ETV
vector 6 Reliability.node[3] rxVector ETV
vector 7 Reliability.node[3] txVector ETV
vector 8 Reliability.node[4] rxVector ETV
vector 9 Reliability.node[4] txVector ETV
vector 10 Reliability.node[5] rxVector ETV
0	0	0	1
0	1	0.114274565438	2
0	1	0.114274565438	3
0	5	0.951879888213	3
0	5	0.951879888213	4
0	8	1.958540309528	5
0	8	1.958540309528	6
0	11	2.008592863939	7
0	11	2.008592863939	8
0	12	3.07962892265	9
0	12	3.07962892265	10
0	13	3.43851748093	11
0	19	4.727800799207	12
0	19	4.727800799207	13
0	20	4.806759018292	14
0	20	4.806759018292	15
0	22	6.508329974859	16
0	22	6.508329974859	17
0	23	6.52739166988	18
0	24	7.942053610999	19
0	24	7.942053610999	20
0	25	8.030178303038	21
0	25	8.030178303038	22
0	26	8.121807956004	22
0	26	8.121807956004	23
0	29	8.502066915513	23
0	29	8.502066915513	24
0	32	9.128385955542	25
0	32	9.128385955542	26
0	33	9.486328638996	27
0	33	9.486328638996	28
0	36	9.690241904331	29
0	37	10.119702416363	30
0	37	10.119702416363	31
0	38	10.845836541056	32
0	39	11.030984426923	33
0	39	11.030984426923	34
0	40	11.660050972931	35
0	40	11.660050972931	36
0	41	11.790340290063	37
0	41	11.790340290063	38
0	42	12.056219102721	39
0	42	12.056219102721	40
0	45	12.522208583784	40
0	45	12.522208583784	41
0	46	12.781670565791	42
0	46	12.781670565791	43
0	47	12.828765715596	44
0	47	12.828765715596	45
0	48	13.023761746341	46
0	48	13.023761746341	47
0	50	14.044592934567	48
0	50	14.044592934567	49
0	51	14.073191303651	50
0	52	14.175316905846	51
0	53	14.196039153803	52
0	53	14.196039153803	53
0	54	14.36176936385	54
0	55	15.361794679332	55
0	55	15.361794679332	56
0	56	15.458870635002	57
0	57	15.851536785376	58
0	57	15.851536785376	59
0	59	16.017032384714	60
0	59	16.017032384714	61
0	60	16.124887957248	62
0	62	17.035454310383	63
0	62	17.035454310383	64
0	63	17.037020057049	65
0	63	17.037020057049	66
0	66	17.320187983692	67
0	66	17.320187983692	68
0	67	17.430815633952	69
0	67	17.430815633952	70
0	68	17.566598878718	71
0	68	17.566598878718	72
0	69	18.154182024672	73
0	69	18.154182024672	74
0	71	18.9174959502	75
0	71	18.9174959502	76
0	72	18.954063686875	77
0	72	18.954063686875	78
0	74	19.185290547677	79
0	74	19.185290547677	80
0	75	19.25202071042	80
0	75	19.25202071042	81
0	78	19.487756490718	82
0	78	19.487756490718	83
0	79	20.083478222507	84
0	79	20.083478222507	85
0	80	20.24346977785	86
0	80	20.24346977785	87
0	81	20.350231008262	88
0	81	20.350231008262	89
0	83	20.564670088776	90
0	83	20.564670088776	91
0	84	20.62182880616	92
0	84	20.62182880616	93
0	85	20.757764459365	94
0	85	20.757764459365	95
0	86	21.371954654948	96
0	87	21.492222917599	97
0	87	21.492222917599	98
0	88	21.746329286492	99
0	88	21.746329286492	100
0	89	22.071026538072	101
0	89	22.071026538072	102
0	91	22.457243736844	103
0	91	22.457243736844	104
0	92	22.51741909802	105
0	92	22.51741909802	106
0	93	22.669391606608	107
0	93	22.669391606608	108
0	94	22.90404305943	109
0	94	22.90404305943	110
0	95	23.384244870201	111
0	97	23.62743248733	112
0	97	23.62743248733	113
0	99	23.747952121152	114
0	100	23.95856811992	115
0	101	24.093246650556	116
0	101	24.093246650556	117
0	103	24.378910580982	118
0	103	24.378910580982	119
0	104	24.854377058607	120
0	104	24.854377058607	121
0	107	25.046234448981	122
0	107	25.046234448981	123
0	110	25.24544791424	124
0	111	25.528533031476	125
0	111	25.528533031476	126
0	113	25.645062905643	127
0	113	25.645062905643	128
0	115	25.810329015466	129
0	115	25.810329015466	130
0	116	25.995640961493	131
0	118	26.345016999061	132
0	118	26.345016999061	133
0	119	26.682622290123	134
0	120	26.938157807179	135
0	120	26.938157807179	136
0	121	26.977176533413	137
0	121	26.977176533413	138
0	122	27.242774329857	139
0	123	27.751789280353	140
0	123	27.751789280353	141
0	124	27.752200296738	142
0	124	27.752200296738	143
0	125	27.774691979673	144
0	125	27.774691979673	145
0	127	28.311448559938	146
0	127	28.311448559938	147
0	129	28.69923213856	148
0	130	28.763914378251	149
0	130	28.763914378251	150
0	131	28.768417249806	151
0	131	28.768417249806	152
0	132	29.109156655856	153
0	132	29.109156655856	154
0	133	29.365786545984	155
0	134	29.718815500422	156
0	135	30.492929841026	157
0	135	30.492929841026	158
0	136	30.638487340308	159
0	136	30.638487340308	160
0	137	30.696498542465	161
0	137	30.696498542465	162
0	138	30.705812068666	163
0	138	30.705812068666	164
0	140	31.149430794017	165
0	140	31.149430794017	166
0	141	31.218841794219	167
0	141	31.218841794219	168
0	145	32.070158426284	169
0	145	32.070158426284	170
0	146	32.114330183586	170
0	146	32.114330183586	171
0	148	32.310464495001	172
0	149	32.441285017684	173
0	149	32.441285017684	174
0	152	32.547651861403	175
0	153	32.570093511148	176
0	154	32.630883735961	177
0	154	32.630883735961	178
0	155	32.646863598553	178
0	155	32.646863598553	179
0	156	33.199625750642	180
0	156	33.199625750642	181
0	157	33.744881123909	182
0	157	33.744881123909	183
0	158	33.750703120471	184
0	158	33.750703120471	185
0	159	34.084580575472	186
0	159	34.084580575472	187
0	162	34.183442807234	188
0	162	34.183442807234	189
0	163	34.313928053491	190
0	163	34.313928053491	191
0	164	34.322289576327	192
0	164	34.322289576327	193
0	165	34.402265444472	194
0	165	34.402265444472	195
0	170	34.914322683459	196
0	170	34.914322683459	197
0	171	34.96177810491	198
0	171	34.96177810491	199
0	173	35.105231580215	200
0	173	35.105231580215	201
0	175	35.587901387671	202
0	175	35.587901387671	203
0	176	35.657121209295	204
0	177	35.703153999466	205
0	177	35.703153999466	206
0	178	35.747741113688	207
0	179	36.175090079801	208
0	179	36.175090079801	209
0	180	36.186578711039	210
0	181	36.258925883688	211
0	181	36.258925883688	212
0	183	36.794620287942	213
0	184	36.865530096069	214
0	184	36.865530096069	215
0	186	36.992696192215	215
0	186	36.992696192215	216
0	188	37.243905554626	217
0	188	37.243905554626	218
0	189	37.3071581895	219
0	189	37.3071581895	220
0	190	37.422588458789	221
0	191	37.450233470359	222
0	191	37.450233470359	223
0	192	37.722076080164	224
0	192	37.722076080164	225
0	194	37.903438390941	226
0	195	37.959579159377	227
0	195	37.959579159377	228
0	197	38.211101911077	228
0	197	38.211101911077	229
0	198	38.2211428311	230
0	202	38.737148515823	231
0	202	38.737148515823	232
0	203	38.739690429863	233
0	203	38.739690429863	234
0	204	38.822370024754	235
0	204	38.822370024754	236
0	205	38.891634261841	237
0	205	38.891634261841	238
0	206	38.9931599713	239
0	206	38.9931599713	240
0	208	39.285098096896	241
0	209	39.384524842297	242
0	209	39.384524842297	243
0	210	39.459087628183	244
0	210	39.459087628183	245
0	211	39.629495701624	246
0	211	39.629495701624	247
0	212	39.797512081032	248
0	213	40.308529583162	249
0	213	40.308529583162	250
0	215	40.53266570232	251
0	215	40.53266570232	252
0	217	40.616018254718	253
0	217	40.616018254718	254
0	218	40.681068134826	255
0	218	40.681068134826	256
0	219	40.765922231739	257
0	219	40.765922231739	258
0	221	40.837710049103	259
0	221	40.837710049103	260
0	224	40.957250171655	260
0	224	40.957250171655	261
0	225	41.126887069188	262
0	225	41.126887069188	263
0	226	41.259356764918	264
0	229	41.436984597518	265
0	229	41.436984597518	266
0	230	41.444119908624	267
0	231	41.71902172466	268
0	233	41.736675251218	269
0	233	41.736675251218	270
0	234	41.778912620951	271
0	234	41.778912620951	272
0	235	41.830507524117	273
0	235	41.830507524117	274
0	236	42.335132988309	275
0	236	42.335132988309	276
0	237	42.364491339388	277
0	238	42.584667074103	278
0	238	42.584667074103	279
0	239	42.611757385411	280
0	240	42.741566627798	281
0	240	42.741566627798	282
0	241	42.969644444419	283
0	241	42.969644444419	284
0	242	43.05310000187	285
0	242	43.05310000187	286
0	244	43.199452082726	287
0	244	43.199452082726	288
0	245	43.326979907007	289
0	245	43.326979907007	290
0	246	43.547099346238	291
0	246	43.547099346238	292
0	247	43.634819242951	293
0	247	43.634819242951	294
0	249	43.660109766332	295
0	250	44.003684775717	296
0	251	44.062177252164	297
0	251	44.062177252164	298
0	252	44.088234589302	299
0	253	44.176602237932	300
0	253	44.176602237932	301
0	257	44.38382797992	302
0	257	44.38382797992	303
0	258	44.416358782602	303
0	258	44.416358782602	304
0	259	44.494237060316	305
0	260	44.708794148505	306
0	260	44.708794148505	307
0	261	44.748725448141	308
0	262	44.753693951935	309
0	264	45.195642462838	310
0	264	45.195642462838	311
0	265	45.221214535255	312
0	265	45.221214535255	313
0	267	45.247709403086	314
0	267	45.247709403086	315
0	268	45.276506672659	316
0	269	45.412226800887	317
0	269	45.412226800887	318
0	271	45.557939928734	319
0	271	45.557939928734	320
0	272	45.867426560127	321
0	272	45.867426560127	322
0	273	45.891648227041	323
0	273	45.891648227041	324
0	275	46.218811001728	325
0	275	46.218811001728	326
0	276	46.277885028051	327
0	277	46.284902947594	328
0	277	46.284902947594	329
0	278	46.342656354093	330
0	278	46.342656354093	331
0	279	46.408345428137	332
0	279	46.408345428137	333
0	280	46.435086463986	334
0	280	46.435086463986	335
0	281	46.495198545592	336
0	281	46.495198545592	337
0	282	46.733418094506	338
0	282	46.733418094506	339
0	283	46.791515356667	340
0	283	46.791515356667	341
0	286	47.067233706442	342
0	287	47.219368624659	343
0	287	47.219368624659	344
0	288	47.287651460042	345
0	289	47.340647229326	346
0	289	47.340647229326	347
0	291	47.461984323581	348
0	291	47.461984323581	349
0	293	47.519501987846	349
0	293	47.519501987846	350
0	294	47.532555150509	351
0	294	47.532555150509	352
0	296	47.846083780657	353
0	296	47.846083780657	354
0	297	47.891050365567	355
0	297	47.891050365567	356
0	298	47.985774507845	357
0	299	48.070949702837	358
0	300	48.244069550524	359
0	301	48.266068071667	360
0	301	48.266068071667	361
0	303	48.532289318895	361
0	303	48.532289318895	362
0	304	48.535830492621	363
0	304	48.535830492621	364
0	305	48.581755671893	365
0	306	48.599331294985	366
0	306	48.599331294985	367
0	307	48.607039181322	368
0	307	48.607039181322	369
0	309	48.696132145905	370
0	309	48.696132145905	371
0	312	49.168666104246	372
0	312	49.168666104246	373
0	313	49.224397937191	374
0	313	49.224397937191	375
0	314	49.377912834928	376
0	314	49.377912834928	377
0	315	49.397650589548	378
0	315	49.397650589548	379
0	316	49.439936906897	380
0	316	49.439936906897	381
0	317	49.455261358665	382
0	317	49.455261358665	383
0	318	49.476813682693	384
0	319	49.547895386038	385
0	319	49.547895386038	386
0	320	49.760538898688	387
0	320	49.760538898688	388
0	321	49.82049220694	389
0	321	49.82049220694	390
0	323	50.105581042664	391
0	323	50.105581042664	392
0	324	50.126346548564	393
0	324	50.126346548564	394
0	325	50.185662466801	395
0	325	50.185662466801	396
0	326	50.187156886644	397
0	326	50.187156886644	398
0	327	50.214325746214	399
0	332	50.378128233405	400
0	332	50.378128233405	401
0	333	50.387352360768	402
0	333	50.387352360768	403
0	334	50.718232300936	404
0	334	50.718232300936	405
0	335	50.743659861758	406
0	335	50.743659861758	407
0	336	50.752690199629	408
0	337	50.928624630827	409
0	337	50.928624630827	410
0	339	51.184935672617	411
0	339	51.184935672617	412
0	341	51.387060364323	413
0	342	51.426398012834	414
0	342	51.426398012834	415
0	344	51.472714002208	415
0	344	51.472714002208	416
0	346	51.573490387538	417
0	346	51.573490387538	418
0	347	51.584690384883	419
0	347	51.584690384883	420
0	348	51.674432322017	421
0	348	51.674432322017	422
0	350	51.812155750189	423
0	350	51.812155750189	424
0	351	51.953008404393	425
0	352	51.971923475526	426
0	353	52.014319382609	427
0	354	52.162044886421	428
0	354	52.162044886421	429
0	355	52.242199521611	430
0	356	52.28442246712	431
0	356	52.28442246712	432
0	358	52.298752311793	433
0	359	52.347099937072	434
0	359	52.347099937072	435
0	361	52.379792753869	435
0	361	52.379792753869	436
0	362	52.644567101692	437
0	362	52.644567101692	438
0	363	52.710243545112	439
0	365	52.750802874146	440
0	365	52.750802874146	441
0	366	52.766117260173	442
0	366	52.766117260173	443
0	367	52.875950034575	444
0	367	52.875950034575	445
0	368	52.925360951351	446
0	368	52.925360951351	447
0	369	53.087079841261	448
0	369	53.087079841261	449
0	370	53.399093358341	450
0	370	53.399093358341	451
0	371	53.436777169939	452
0	372	53.56292061422	453
0	372	53.56292061422	454
0	373	53.652583465837	455
0	373	53.652583465837	456
0	374	53.677078454931	457
0	375	53.729907995595	458
0	375	53.729907995595	459
0	376	53.853947939218	460
0	376	53.853947939218	461
0	377	53.871117005977	462
0	377	53.871117005977	463
0	378	53.901447388211	464
0	378	53.901447388211	465
0	379	53.919390672316	466
0	379	53.919390672316	467
0	380	53.939889046503	468
0	380	53.939889046503	469
0	381	54.008720170708	470
0	381	54.008720170708	471
0	384	54.221561406586	472
0	385	54.302473963111	473
0	385	54.302473963111	474
0	386	54.364853514441	475
0	386	54.364853514441	476
0	387	54.431227335718	477
0	387	54.431227335718	478
0	388	54.725768745587	479
0	388	54.725768745587	480
0	389	54.726554563083	481
0	389	54.726554563083	482
0	390	54.892463321173	483
0	390	54.892463321173	484
0	391	54.924063805986	485
0	391	54.924063805986	486
0	392	54.958575824608	487
0	392	54.958575824608	488
0	393	55.059843648963	489
0	394	55.144812728651	490
0	394	55.144812728651	491
0	395	55.187372188905	492
0	395	55.187372188905	493
0	396	55.310358065752	494
0	396	55.310358065752	495
0	397	55.381745908796	496
0	397	55.381745908796	497
0	398	55.389380914707	498
0	398	55.389380914707	499
0	399	55.514902013745	500
0	399	55.514902013745	501
0	401	55.581961870527	502
0	401	55.581961870527	503
0	403	55.647747555283	504
0	403	55.647747555283	505
0	405	55.750867761486	506
0	405	55.750867761486	507
0	406	55.856618201673	508
0	406	55.856618201673	509
0	407	55.864098150945	510
0	407	55.864098150945	511
0	408	56.159260041818	512
0	408	56.159260041818	513
0	409	56.203131749557	514
0	409	56.203131749557	515
0	410	56.228478290084	516
0	410	56.228478290084	517
0	411	56.313061280049	518
0	411	56.313061280049	519
0	412	56.353338799218	520
0	412	56.353338799218	521
0	415	56.630276840292	521
0	415	56.630276840292	522
0	416	56.649469551963	523
0	416	56.649469551963	524
0	418	56.798635162021	525
0	419	56.83660578487	526
0	419	56.83660578487	527
0	420	56.84008273473	528
0	420	56.84008273473	529
0	421	56.911520037224	530
0	422	56.947503931435	531
0	422	56.947503931435	532
0	423	56.978120524518	533
0	423	56.978120524518	534
0	424	57.022627963785	535
0	427	57.133916164902	535
0	427	57.133916164902	536
0	428	57.133970649495	537
0	428	57.133970649495	538
0	429	57.361939759403	539
0	429	57.361939759403	540
0	430	57.42969267738	541
0	431	57.438587718644	542
0	431	57.438587718644	543
0	433	57.690922368747	544
0	433	57.690922368747	545
0	434	57.692445958366	546
0	434	57.692445958366	547
0	436	57.782554714747	548
0	436	57.782554714747	549
0	437	57.856059562892	550
0	437	57.856059562892	551
0	438	57.857708634682	552
0	438	57.857708634682	553
0	439	58.083238612424	554
0	439	58.083238612424	555
0	440	58.11512308156	556
0	440	58.11512308156	557
0	441	58.168498118276	558
0	441	58.168498118276	559
0	442	58.173586172332	560
0	442	58.173586172332	561
0	444	58.393898346076	562
0	444	58.393898346076	563
0	445	58.460174210481	564
0	445	58.460174210481	565
0	446	58.491626945214	566
0	446	58.491626945214	567
0	447	58.559007799102	568
0	448	58.746436967887	569
0	449	58.788748483793	570
0	449	58.788748483793	571
0	450	58.86124918285	572
0	450	58.86124918285	573
0	451	58.879551861612	574
0	451	58.879551861612	575
0	452	58.904360661907	576
0	452	58.904360661907	577
0	453	59.03236702165	578
0	453	59.03236702165	579
0	454	59.044910155856	580
0	454	59.044910155856	581
0	455	59.178330696727	582
0	455	59.178330696727	583
0	456	59.178471639287	584
0	456	59.178471639287	585
0	457	59.213928762088	586
0	457	59.213928762088	587
0	458	59.253203663549	588
0	459	59.376383016614	589
0	459	59.376383016614	590
0	460	59.457586151595	591
0	460	59.457586151595	592
0	461	59.477749406228	593
0	461	59.477749406228	594
0	462	59.690408210603	595
0	462	59.690408210603	596
0	463	59.797651590192	597
0	463	59.797651590192	598
0	464	59.913513858652	599
0	465	60.084407216992	600
0	465	60.084407216992	601
0	466	60.264015939796	602
0	466	60.264015939796	603
0	467	60.291957556503	604
0	467	60.291957556503	605
0	468	60.311607031538	606
0	468	60.311607031538	607
0	469	60.322117054217	608
0	469	60.322117054217	609
0	470	60.352503492189	610
0	470	60.352503492189	611
0	471	60.37977538087	612
0	471	60.37977538087	613
0	472	60.398071739852	614
0	473	60.400889241642	615
0	474	60.403456743946	616
0	474	60.403456743946	617
0	475	60.549426936973	618
0	475	60.549426936973	619
0	476	60.669949717926	620
0	476	60.669949717926	621
0	477	60.878829849362	622
0	478	60.88986763456	623
0	478	60.88986763456	624
0	480	61.068124351398	625
0	480	61.068124351398	626
0	481	61.122769501637	627
0	481	61.122769501637	628
0	482	61.316524101898	629
0	482	61.316524101898	630
0	484	61.348831976166	631
0	484	61.348831976166	632
0	486	61.46992572568	633
0	486	61.46992572568	634
0	487	61.495329738857	635
0	487	61.495329738857	636
0	488	61.496918044601	637
0	488	61.496918044601	638
0	490	61.541566148325	639
0	490	61.541566148325	640
0	491	61.649149134855	641
0	491	61.649149134855	642
0	492	61.718452339722	643
0	492	61.718452339722	644
0	493	61.785896842973	645
0	493	61.785896842973	646
0	494	61.829805289285	647
0	495	61.898666145785	648
0	495	61.898666145785	649
0	497	61.968258188781	649
0	497	61.968258188781	650
0	498	62.005701637874	651
0	498	62.005701637874	652
0	500	62.092538166945	653
0	500	62.092538166945	654
0	501	62.149943242957	655
0	502	62.168082863632	656
0	502	62.168082863632	657
0	503	62.24008506827	658
0	503	62.24008506827	659
0	504	62.241837977586	660
0	504	62.241837977586	661
0	505	62.275383792119	662
0	507	62.491899361449	663
0	507	62.491899361449	664
0	509	62.566530977016	665
0	509	62.566530977016	666
0	510	62.693550098322	667
0	511	62.774783111188	668
0	511	62.774783111188	669
0	512	63.008450606644	670
0	512	63.008450606644	671
0	513	63.078489150078	672
0	513	63.078489150078	673
0	514	63.109857434204	674
0	515	63.121728407606	675
0	515	63.121728407606	676
0	516	63.122276243138	677
0	516	63.122276243138	678
0	517	63.1238259249	679
0	517	63.1238259249	680
0	518	63.391382570734	681
0	518	63.391382570734	682
0	519	63.482464945044	683
0	519	63.482464945044	684
0	520	63.499824043503	685
0	520	63.499824043503	686
0	521	63.575220895804	687
0	521	63.575220895804	688
0	522	63.597063181843	689
0	523	63.605184943992	690
0	523	63.605184943992	691
0	524	63.633935918542	692
0	524	63.633935918542	693
0	525	63.684860097653	694
0	525	63.684860097653	695
0	526	63.714763178571	696
0	526	63.714763178571	697
0	527	63.718494827727	698
0	527	63.718494827727	699
0	528	63.840932571573	700
0	528	63.840932571573	701
0	529	63.964843887883	702
0	529	63.964843887883	703
0	532	64.123723943951	704
0	532	64.123723943951	705
0	533	64.126390221835	706
0	533	64.126390221835	707
0	537	64.231108539544	708
0	537	64.231108539544	709
0	538	64.240609417594	710
0	539	64.27564512411	711
0	540	64.552875775711	712
0	540	64.552875775711	713
0	541	64.669539833471	714
0	541	64.669539833471	715
0	542	64.735614438414	716
0	542	64.735614438414	717
0	543	64.836752778814	718
0	543	64.836752778814	719
0	544	64.919616662554	720
0	544	64.919616662554	721
0	545	64.947270441023	722
0	545	64.947270441023	723
0	547	64.997753726197	724
0	547	64.997753726197	725
0	548	65.00668030364	726
0	548	65.00668030364	727
0	550	65.094957800127	728
0	550	65.094957800127	729
0	554	65.219557996009	730
0	554	65.219557996009	731
0	555	65.225748388144	732
0	555	65.225748388144	733
0	556	65.250845691794	734
0	556	65.250845691794	735
0	557	65.294444068649	736
0	557	65.294444068649	737
0	558	65.301529224705	738
0	558	65.301529224705	739
0	560	65.634245373176	740
0	560	65.634245373176	741
0	561	65.637778417906	742
0	561	65.637778417906	743
0	562	65.650770027497	744
0	562	65.650770027497	745
0	563	65.67220885394	746
0	563	65.67220885394	747
0	564	65.849598033278	748
0	564	65.849598033278	749
0	565	65.854656328297	750
0	566	65.977944915688	751
0	566	65.977944915688	752
0	567	66.100574773192	753
0	568	66.359526548383	754
0	568	66.359526548383	755
0	569	66.362878703201	756
0	570	66.369672477357	757
0	570	66.369672477357	758
0	571	66.469117236446	759
0	572	66.553460969833	760
0	572	66.553460969833	761
0	574	66.627586958836	762
0	574	66.627586958836	763
0	575	66.639444916473	764
0	575	66.639444916473	765
0	576	66.646341638204	766
0	576	66.646341638204	767
0	577	66.702004407405	768
0	577	66.702004407405	769
0	578	66.844792840843	770
0	578	66.844792840843	771
0	579	66.931855080184	772
0	580	66.97721837086	773
0	581	67.100236116777	774
0	581	67.100236116777	775
0	582	67.125850514323	776
0	582	67.125850514323	777
0	583	67.287412286195	778
0	583	67.287412286195	779
0	584	67.380829660555	780
0	584	67.380829660555	781
0	585	67.445031547798	782
0	585	67.445031547798	783
0	586	67.450380448195	784
0	586	67.450380448195	785
0	589	67.745112602738	786
0	589	67.745112602738	787
0	590	67.820799807825	788
0	591	67.829646139256	789
0	591	67.829646139256	790
0	592	67.893780242541	791
0	592	67.893780242541	792
0	593	67.918608078422	793
0	593	67.918608078422	794
0	594	67.971847885754	795
0	594	67.971847885754	796
0	595	68.038138576581	797
0	596	68.144968078859	798
0	598	68.250431424436	799
0	599	68.328186381216	800
0	599	68.328186381216	801
0	600	68.334950688842	802
0	600	68.334950688842	803
0	601	68.375841753197	804
0	601	68.375841753197	805
0	603	68.43121175632	806
0	603	68.43121175632	807
0	604	68.457414924634	807
0	604	68.457414924634	808
0	605	68.473005777916	808
0	605	68.473005777916	809
0	610	68.616923471888	810
0	613	68.732765898674	811
0	613	68.732765898674	812
0	614	68.793388923964	813
0	614	68.793388923964	814
0	615	68.807805095742	815
0	615	68.807805095742	816
0	616	68.824647937593	817
0	616	68.824647937593	818
0	617	68.857539924466	819
0	617	68.857539924466	820
0	618	68.935215485096	821
0	619	68.972393856617	822
0	619	68.972393856617	823
0	621	69.033234167884	824
0	621	69.033234167884	825
0	622	69.099113475178	826
0	622	69.099113475178	827
0	623	69.208521858711	828
0	626	69.440973560875	829
0	626	69.440973560875	830
0	627	69.46354030751	831
0	627	69.46354030751	832
0	628	69.465829630579	833
0	628	69.465829630579	834
0	629	69.494096927892	835
0	629	69.494096927892	836
0	630	69.498762237366	837
0	631	69.596667490588	838
0	631	69.596667490588	839
0	632	69.597006943956	839
0	632	69.597006943956	840
0	633	69.639013202285	841
0	633	69.639013202285	842
0	639	70.012018310606	843
0	639	70.012018310606	844
0	640	70.035032681165	845
0	640	70.035032681165	846
0	641	70.042562117175	847
0	641	70.042562117175	848
0	643	70.075128876128	848
0	643	70.075128876128	849
0	644	70.091868972685	850
0	644	70.091868972685	851
0	645	70.103091665416	852
0	645	70.103091665416	853
0	646	70.203115128547	854
0	646	70.203115128547	855
0	647	70.210239943855	856
0	647	70.210239943855	857
0	649	70.28567178269	858
0	650	70.336210503165	859
0	653	70.500876921449	859
0	653	70.500876921449	860
0	654	70.510756806413	861
0	654	70.510756806413	862
0	655	70.60924147849	863
0	655	70.60924147849	864
0	656	70.629245892733	865
0	656	70.629245892733	866
0	657	70.713707884931	867
0	657	70.713707884931	868
0	658	70.729842435242	869
0	658	70.729842435242	870
0	659	70.752387945533	871
0	659	70.752387945533	872
0	660	70.89190126746	873
0	660	70.89190126746	874
0	661	70.998123859411	875
0	661	70.998123859411	876
0	662	71.058031885886	877
0	662	71.058031885886	878
0	663	71.066042496088	879
0	664	71.079690309556	880
0	664	71.079690309556	881
0	665	71.08889917605	882
0	665	71.08889917605	883
0	666	71.157286021889	884
0	666	71.157286021889	885
0	668	71.244598146633	886
0	668	71.244598146633	887
0	669	71.32494612967	888
0	669	71.32494612967	889
0	670	71.364278864432	890
0	671	71.418556382487	891
0	671	71.418556382487	892
0	672	71.419659338881	893
0	672	71.419659338881	894
0	673	71.470224319878	895
0	673	71.470224319878	896
0	674	71.56600312596	897
0	674	71.56600312596	898
0	676	71.696650395209	899
0	676	71.696650395209	900
0	677	71.820696272767	901
0	677	71.820696272767	902
0	678	71.834390067883	903
0	678	71.834390067883	904
0	679	71.906841034313	905
0	680	71.917568675462	906
0	680	71.917568675462	907
0	681	71.927760015933	908
0	681	71.927760015933	909
0	682	72.055001121836	910
0	682	72.055001121836	911
0	683	72.055609962717	912
0	683	72.055609962717	913
0	684	72.056389677572	914
0	684	72.056389677572	915
0	685	72.145414580592	916
0	685	72.145414580592	917
0	686	72.204779778475	918
0	686	72.204779778475	919
0	687	72.208031097137	920
0	687	72.208031097137	921
0	688	72.395281825861	922
0	688	72.395281825861	923
0	690	72.452489899435	924
0	690	72.452489899435	925
0	691	72.458216581017	926
0	691	72.458216581017	927
0	693	72.632254332927	928
0	693	72.632254332927	929
0	694	72.646196415264	930
0	694	72.646196415264	931
0	695	72.666770314937	932
0	695	72.666770314937	933
0	698	72.809264680476	934
0	698	72.809264680476	935
0	699	72.867992265329	935
0	699	72.867992265329	936
0	700	72.91465016248	937
0	701	72.918923920803	938
0	701	72.918923920803	939
0	702	73.123853085453	940
0	702	73.123853085453	941
0	703	73.150190096422	942
0	703	73.150190096422	943
0	704	73.211462397049	944
0	704	73.211462397049	945
0	705	73.2261083042	946
0	705	73.2261083042	947
0	706	73.281242969019	948
0	706	73.281242969019	949
0	707	73.367229656084	950
0	707	73.367229656084	951
0	708	73.469152770804	952
0	708	73.469152770804	953
0	709	73.537845147542	954
0	710	73.64071871305	955
0	711	73.731448813794	956
0	711	73.731448813794	957
0	712	73.766685380755	958
0	712	73.766685380755	959
0	714	73.786675175466	960
0	714	73.786675175466	961
0	715	73.791236239245	962
0	715	73.791236239245	963
0	716	73.893267092026	964
0	718	73.899842347495	965
0	718	73.899842347495	966
0	719	73.914092102962	967
0	719	73.914092102962	968
0	720	73.932551046003	969
0	721	73.93827746691	970
0	721	73.93827746691	971
0	722	73.983832821979	972
0	722	73.983832821979	973
0	724	74.127871112357	974
0	724	74.127871112357	975
0	726	74.158361743344	976
0	726	74.158361743344	977
0	727	74.269090444863	978
0	727	74.269090444863	979
0	728	74.291848918994	980
0	728	74.291848918994	981
0	729	74.300352467347	982
0	729	74.300352467347	983
0	731	74.369100521266	984
0	731	74.369100521266	985
0	733	74.57149101169	986
0	733	74.57149101169	987
0	734	74.594311506095	988
0	734	74.594311506095	989
0	735	74.597819907071	990
0	735	74.597819907071	991
0	736	74.693227707616	992
0	736	74.693227707616	993
0	738	74.803407402934	994
0	738	74.803407402934	995
0	739	74.821504128948	996
0	739	74.821504128948	997
0	741	75.050677750128	998
0	741	75.050677750128	999
0	742	75.144503809221	1000
0	742	75.144503809221	1001
0	743	75.157691945788	1002
0	743	75.157691945788	1003
0	744	75.200476193847	1004
0	745	75.211270972774	1005
0	745	75.211270972774	1006
0	746	75.216096629352	1007
0	747	75.25904679081	1008
0	747	75.25904679081	1009
0	748	75.313065877266	1010
0	748	75.313065877266	1011
0	749	75.322306362433	1012
0	749	75.322306362433	1013
0	750	75.33101351618	1014
0	750	75.33101351618	1015
0	751	75.343109002804	1016
0	751	75.343109002804	1017
0	752	75.364660109972	1018
0	753	75.390871840397	1019
0	753	75.390871840397	1020
0	754	75.406705303594	1021
0	754	75.406705303594	1022
0	755	75.470484557667	1023
0	756	75.571799945117	1024
0	756	75.571799945117	1025
0	758	75.615261571322	1026
0	758	75.615261571322	1027
0	759	75.644611693632	1028
0	759	75.644611693632	1029
0	760	75.87668949155	1030
0	760	75.87668949155	1031
0	761	75.908913901954	1032
0	761	75.908913901954	1033
0	762	75.93690558241	1034
0	762	75.93690558241	1035
0	764	76.048142873374	1036
0	764	76.048142873374	1037
0	765	76.089201193675	1038
0	767	76.279364075199	1039
0	768	76.286388559733	1040
0	769	76.329852398427	1041
0	769	76.329852398427	1042
0	770	76.345160526875	1043
0	771	76.366478794759	1044
0	771	76.366478794759	1045
0	773	76.387125364506	1046
0	774	76.458307536907	1047
0	774	76.458307536907	1048
0	775	76.46112637626	1049
0	775	76.46112637626	1050
0	776	76.510258752308	1051
0	776	76.510258752308	1052
0	777	76.547508630195	1053
0	778	76.550801382912	1054
0	778	76.550801382912	1055
0	781	76.658120396959	1056
0	781	76.658120396959	1057
0	782	76.663058725267	1058
0	782	76.663058725267	1059
0	783	76.681468747862	1060
0	783	76.681468747862	1061
0	784	76.706894762592	1062
0	784	76.706894762592	1063
0	785	76.721439408007	1064
0	786	76.73727271763	1065
0	786	76.73727271763	1066
0	790	76.873053261562	1066
0	790	76.873053261562	1067
0	791	76.900462030779	1068
0	793	77.017578317652	1069
0	794	77.137543255438	1070
0	794	77.137543255438	1071
0	795	77.159947481901	1072
0	796	77.223924541644	1073
0	796	77.223924541644	1074
0	797	77.243498573066	1075
0	798	77.290447922646	1076
0	798	77.290447922646	1077
0	799	77.387789580041	1078
0	799	77.387789580041	1079
0	800	77.396236005891	1080
0	801	77.413143381418	1081
0	801	77.413143381418	1082
0	802	77.486289529718	1083
0	802	77.486289529718	1084
0	805	77.606194113306	1085
0	805	77.606194113306	1086
0	806	77.636986425067	1087
0	806	77.636986425067	1088
0	807	77.647023974303	1089
0	807	77.647023974303	1090
0	808	77.732631576893	1091
0	808	77.732631576893	1092
0	809	77.794149254122	1093
0	809	77.794149254122	1094
0	810	77.805776616013	1095
0	810	77.805776616013	1096