version 3
run General-4-20231019-15:54:20-24860
attr configname General
attr datetime 20231019-15:54:20
attr datetimef 20231019-155420
attr experiment General
attr inifile omnetpp.ini
attr iterationvars ""
attr iterationvarsd ""
attr iterationvarsf ""
attr measurement ""
attr network Reliability
attr processid 24860
attr repetition 4
attr replication #4
attr resultdir results
attr runnumber 4
attr seedset 4
config network Reliability
config Reliability.node[*].transmissionTime "uniform(1s, 2s)"
config Reliability.node[*].delayTime "uniform(0.01s, 0.2s)"
config Reliability.node[*].lossProbability 0.2
config record-eventlog true
config sim-time-limit 240s
config repeat 5

vector 0 Reliability.node[0] txVector ETV
vector 1 Reliability.node[1] txVector ETV
vector 2 Reliability.node[1] rxVector ETV
vector 3 Reliability.node[3] txVector ETV
vector 4 Reliability.node[3] rxVector ETV
vector 5 Reliability.node[0] rxVector ETV
vector 6 Reliability.node[4] txVector ETV
vector 7 Reliability.node[4] rxVector ETV
vector 8 Reliability.node[2] txVector ETV
vector 9 Reliability.node[2] rxVector ETV
vector 10 Reliability.node[5] rxVector ETV
vector 11 Reliability.node[5] e2eVector ETV
0	1	0.193735669288	1
0	1	0.193735669288	1
0	1	0.193735669288	1
0	3	1.740967922532	2
0	3	1.740967922532	2
0	3	1.740967922532	2
0	13	3.596588867404	3
0	13	3.596588867404	3
0	13	3.596588867404	3
0	25	5.459582102638	4
0	25	5.459582102638	4
0	25	5.459582102638	4
0	27	6.905931303198	5
0	27	6.905931303198	5
0	27	6.905931303198	5
0	29	7.980879889954	6
0	29	7.980879889954	6
0	29	7.980879889954	6
0	31	9.156741124964	7
0	31	9.156741124964	7
0	31	9.156741124964	7
0	43	10.890121290381	8
0	43	10.890121290381	8
0	43	10.890121290381	8
0	55	12.265489724153	9
0	55	12.265489724153	9
0	55	12.265489724153	9
0	60	13.628343312689	10
0	60	13.628343312689	10
0	60	13.628343312689	10
0	72	15.31393151606	11
0	72	15.31393151606	11
0	72	15.31393151606	11
0	74	16.398593128347	12
0	74	16.398593128347	12
0	74	16.398593128347	12
0	86	17.44324095679	13
0	86	17.44324095679	13
0	86	17.44324095679	13
0	98	18.491775096548	14
0	98	18.491775096548	14
0	98	18.491775096548	14
0	110	19.973235039893	15
0	110	19.973235039893	15
0	110	19.973235039893	15
0	112	21.875656898753	16
0	112	21.875656898753	16
0	112	21.875656898753	16
0	124	22.878583494262	17
0	124	22.878583494262	17
0	124	22.878583494262	17
0	131	24.28721027697	18
0	131	24.28721027697	18
0	131	24.28721027697	18
0	143	25.517107176981	19
0	143	25.517107176981	19
0	143	25.517107176981	19
0	155	27.46677612063	20
0	155	27.46677612063	20
0	155	27.46677612063	20
0	157	29.364867898323	21
0	157	29.364867898323	21
0	157	29.364867898323	21
0	166	30.774459287444	22
0	166	30.774459287444	22
0	166	30.774459287444	22
0	178	32.548430913979	23
0	178	32.548430913979	23
0	178	32.548430913979	23
0	190	34.355979862775	24
0	190	34.355979862775	24
0	190	34.355979862775	24
0	202	35.375922222541	25
0	202	35.375922222541	25
0	202	35.375922222541	25
0	214	37.200743146858	26
0	214	37.200743146858	26
0	214	37.200743146858	26
0	226	38.485987740488	27
0	226	38.485987740488	27
0	226	38.485987740488	27
0	238	39.857821451652	28
0	238	39.857821451652	28
0	238	39.857821451652	28
0	250	41.293992456433	29
0	250	41.293992456433	29
0	250	41.293992456433	29
0	252	42.527772886364	30
0	252	42.527772886364	30
0	252	42.527772886364	30
0	254	43.981602125021	31
0	254	43.981602125021	31
0	254	43.981602125021	31
0	256	45.820312825648	32
0	256	45.820312825648	32
0	256	45.820312825648	32
0	261	47.689738743391	33
0	261	47.689738743391	33
0	261	47.689738743391	33
0	273	48.846270949498	34
0	273	48.846270949498	34
0	273	48.846270949498	34
0	275	50.201892607531	35
0	275	50.201892607531	35
0	275	50.201892607531	35
0	277	51.845201134367	36
0	277	51.845201134367	36
0	277	51.845201134367	36
0	289	53.734211627079	37
0	289	53.734211627079	37
0	289	53.734211627079	37
0	291	55.089548257796	38
0	291	55.089548257796	38
0	291	55.089548257796	38
0	303	57.023090886801	39
0	303	57.023090886801	39
0	303	57.023090886801	39
0	315	58.528897952439	40
0	315	58.528897952439	40
0	315	58.528897952439	40
0	317	59.724009112838	41
0	317	59.724009112838	41
0	317	59.724009112838	41
0	329	61.085991229547	42
0	329	61.085991229547	42
0	329	61.085991229547	42
0	341	62.625439422589	43
0	341	62.625439422589	43
0	341	62.625439422589	43
0	343	64.060715733014	44
0	343	64.060715733014	44
0	343	64.060715733014	44
0	355	65.217809200438	45
0	355	65.217809200438	45
0	355	65.217809200438	45
0	367	66.379813433776	46
0	367	66.379813433776	46
0	367	66.379813433776	46
0	379	67.624495363713	47
0	379	67.624495363713	47
0	379	67.624495363713	47
0	391	69.607007233345	48
0	391	69.607007233345	48
0	391	69.607007233345	48
0	403	70.776625063888	49
0	403	70.776625063888	49
0	403	70.776625063888	49
0	415	72.558529552224	50
0	415	72.558529552224	50
0	415	72.558529552224	50
0	427	73.613606554841	51
0	427	73.613606554841	51
0	427	73.613606554841	51
0	429	74.681414720289	52
0	429	74.681414720289	52
0	429	74.681414720289	52
0	440	75.701476301219	53
0	440	75.701476301219	53
0	440	75.701476301219	53
0	443	77.591132140172	54
0	443	77.591132140172	54
0	443	77.591132140172	54
0	455	79.246633206646	55
0	455	79.246633206646	55
0	455	79.246633206646	55
0	460	81.011289684952	56
0	460	81.011289684952	56
0	460	81.011289684952	56
0	472	82.49537769045	57
0	472	82.49537769045	57
0	472	82.49537769045	57
0	481	84.259369739017	58
0	481	84.259369739017	58
0	481	84.259369739017	58
0	493	86.179976568942	59
0	493	86.179976568942	59
0	493	86.179976568942	59
0	495	87.509738702479	60
0	495	87.509738702479	60
0	495	87.509738702479	60
0	507	88.726181590616	61
0	507	88.726181590616	61
0	507	88.726181590616	61
0	519	90.439599021257	62
0	519	90.439599021257	62
0	519	90.439599021257	62
0	531	91.905179070926	63
0	531	91.905179070926	63
0	531	91.905179070926	63
0	543	93.784797505394	64
0	543	93.784797505394	64
0	543	93.784797505394	64
0	550	95.625209294178	65
0	550	95.625209294178	65
0	550	95.625209294178	65
0	562	97.001584913733	66
0	562	97.001584913733	66
0	562	97.001584913733	66
0	564	98.827637692133	67
0	564	98.827637692133	67
0	564	98.827637692133	67
0	576	99.896734990796	68
0	576	99.896734990796	68
0	576	99.896734990796	68
0	588	101.284233549993	69
0	588	101.284233549993	69
0	588	101.284233549993	69
0	600	102.719041300622	70
0	600	102.719041300622	70
0	600	102.719041300622	70
0	609	104.04774774626	71
0	609	104.04774774626	71
0	609	104.04774774626	71
0	611	105.768142526188	72
0	611	105.768142526188	72
0	611	105.768142526188	72
0	613	106.789315975654	73
0	613	106.789315975654	73
0	613	106.789315975654	73
0	622	108.65178709725	74
0	622	108.65178709725	74
0	622	108.65178709725	74
0	634	110.098120718413	75
0	634	110.098120718413	75
0	634	110.098120718413	75
0	636	111.201041498837	76
0	636	111.201041498837	76
0	636	111.201041498837	76
0	648	112.682801926891	77
0	648	112.682801926891	77
0	648	112.682801926891	77
0	660	113.753539913018	78
0	660	113.753539913018	78
0	660	113.753539913018	78
0	672	114.768007139825	79
0	672	114.768007139825	79
0	672	114.768007139825	79
0	674	116.059951938373	80
0	674	116.059951938373	80
0	674	116.059951938373	80
0	686	117.955095552291	81
0	686	117.955095552291	81
0	686	117.955095552291	81
0	698	119.494116632185	82
0	698	119.494116632185	82
0	698	119.494116632185	82
0	710	121.166563822107	83
0	710	121.166563822107	83
0	710	121.166563822107	83
0	720	122.964429356308	84
0	720	122.964429356308	84
0	720	122.964429356308	84
0	732	124.684166458353	85
0	732	124.684166458353	85
0	732	124.684166458353	85
0	734	125.732871113728	86
0	734	125.732871113728	86
0	734	125.732871113728	86
0	744	127.450697555357	87
0	744	127.450697555357	87
0	744	127.450697555357	87
0	746	129.098543342353	88
0	746	129.098543342353	88
0	746	129.098543342353	88
0	758	130.12229076625	89
0	758	130.12229076625	89
0	758	130.12229076625	89
0	770	131.859540942276	90
0	770	131.859540942276	90
0	770	131.859540942276	90
0	782	133.378741802333	91
0	782	133.378741802333	91
0	782	133.378741802333	91
0	794	134.736257115064	92
0	794	134.736257115064	92
0	794	134.736257115064	92
0	806	136.697182010311	93
0	806	136.697182010311	93
0	806	136.697182010311	93
0	818	138.229606798767	94
0	818	138.229606798767	94
0	818	138.229606798767	94
0	830	139.502413813407	95
0	830	139.502413813407	95
0	830	139.502413813407	95
0	839	141.385033100993	96
0	839	141.385033100993	96
0	839	141.385033100993	96
0	851	142.977563640019	97
0	851	142.977563640019	97
0	851	142.977563640019	97
0	853	144.023076089714	98
0	853	144.023076089714	98
0	853	144.023076089714	98
0	865	145.592121681581	99
0	865	145.592121681581	99
0	865	145.592121681581	99
0	877	146.710391733247	100
0	877	146.710391733247	100
0	877	146.710391733247	100
0	889	148.542639869881	101
0	889	148.542639869881	101
0	889	148.542639869881	101
0	891	150.430529147304	102
0	891	150.430529147304	102
0	891	150.430529147304	102
0	903	152.397123819135	103
0	903	152.397123819135	103
0	903	152.397123819135	103
0	905	153.552430226385	104
0	905	153.552430226385	104
0	905	153.552430226385	104
0	917	155.517891270259	105
0	917	155.517891270259	105
0	917	155.517891270259	105
0	929	157.140225603163	106
0	929	157.140225603163	106
0	929	157.140225603163	106
0	941	158.556976785568	107
0	941	158.556976785568	107
0	941	158.556976785568	107
0	953	160.499561691807	108
0	953	160.499561691807	108
0	953	160.499561691807	108
0	965	161.998358942951	109
0	965	161.998358942951	109
0	965	161.998358942951	109
0	977	163.868665907449	110
0	977	163.868665907449	110
0	977	163.868665907449	110
0	989	165.389546200783	111
0	989	165.389546200783	111
0	989	165.389546200783	111
0	1001	167.220741148257	112
0	1001	167.220741148257	112
0	1001	167.220741148257	112
0	1003	168.62499207087	113
0	1003	168.62499207087	113
0	1003	168.62499207087	113
0	1015	169.877434177242	114
0	1015	169.877434177242	114
0	1015	169.877434177242	114
0	1017	171.78374190597	115
0	1017	171.78374190597	115
0	1017	171.78374190597	115
0	1029	173.183987205533	116
0	1029	173.183987205533	116
0	1029	173.183987205533	116
0	1036	174.941701694077	117
0	1036	174.941701694077	117
0	1036	174.941701694077	117
0	1048	176.123124387732	118
0	1048	176.123124387732	118
0	1048	176.123124387732	118
0	1055	177.179366142873	119
0	1055	177.179366142873	119
0	1055	177.179366142873	119
0	1057	178.699365959887	120
0	1057	178.699365959887	120
0	1057	178.699365959887	120
0	1069	179.998790103395	121
0	1069	179.998790103395	121
0	1069	179.998790103395	121
0	1081	181.894737865461	122
0	1081	181.894737865461	122
0	1081	181.894737865461	122
0	1093	183.174268863315	123
0	1093	183.174268863315	123
0	1093	183.174268863315	123
0	1105	184.93571661358	124
0	1105	184.93571661358	124
0	1105	184.93571661358	124
0	1117	186.639752529247	125
0	1117	186.639752529247	125
0	1117	186.639752529247	125
0	1124	188.11003644733	126
0	1124	188.11003644733	126
0	1124	188.11003644733	126
0	1126	189.526999632747	127
0	1126	189.526999632747	127
0	1126	189.526999632747	127
0	1133	190.709117255558	128
0	1133	190.709117255558	128
0	1133	190.709117255558	128
0	1145	192.435097990709	129
0	1145	192.435097990709	129
0	1145	192.435097990709	129
0	1157	194.133193192922	130
0	1157	194.133193192922	130
0	1157	194.133193192922	130
0	1159	195.999688170769	131
0	1159	195.999688170769	131
0	1159	195.999688170769	131
0	1171	197.358643489576	132
0	1171	197.358643489576	132
0	1171	197.358643489576	132
0	1183	198.772837323288	133
0	1183	198.772837323288	133
0	1183	198.772837323288	133
0	1195	200.552791413071	134
0	1195	200.552791413071	134
0	1195	200.552791413071	134
0	1207	202.379473642597	135
0	1207	202.379473642597	135
0	1207	202.379473642597	135
0	1219	204.090269255836	136
0	1219	204.090269255836	136
0	1219	204.090269255836	136
0	1231	205.591038677294	137
0	1231	205.591038677294	137
0	1231	205.591038677294	137
0	1238	206.614814592211	138
0	1238	206.614814592211	138
0	1238	206.614814592211	138
0	1250	208.113918398658	139
0	1250	208.113918398658	139
0	1250	208.113918398658	139
0	1255	209.186710931512	140
0	1255	209.186710931512	140
0	1255	209.186710931512	140
0	1267	210.246492203243	141
0	1267	210.246492203243	141
0	1267	210.246492203243	141
0	1269	211.632331157952	142
0	1269	211.632331157952	142
0	1269	211.632331157952	142
0	1276	213.092751481721	143
0	1276	213.092751481721	143
0	1276	213.092751481721	143
0	1281	214.604439783526	144
0	1281	214.604439783526	144
0	1281	214.604439783526	144
0	1293	216.194403682287	145
0	1293	216.194403682287	145
0	1293	216.194403682287	145
0	1295	217.53798753108	146
0	1295	217.53798753108	146
0	1295	217.53798753108	146
0	1304	219.181610429344	147
0	1304	219.181610429344	147
0	1304	219.181610429344	147
0	1316	220.243876699043	148
0	1316	220.243876699043	148
0	1316	220.243876699043	148
0	1328	221.348715832375	149
0	1328	221.348715832375	149
0	1328	221.348715832375	149
0	1340	222.736469883623	150
0	1340	222.736469883623	150
0	1340	222.736469883623	150
0	1352	224.698146079353	151
0	1352	224.698146079353	151
0	1352	224.698146079353	151
0	1359	226.537597762573	152
0	1359	226.537597762573	152
0	1359	226.537597762573	152
0	1371	228.085764266936	153
0	1371	228.085764266936	153
0	1371	228.085764266936	153
0	1373	229.796000131791	154
0	1373	229.796000131791	154
0	1373	229.796000131791	154
0	1385	231.569646821044	155
0	1385	231.569646821044	155
0	1385	231.569646821044	155
0	1397	232.78673097134	156
0	1397	232.78673097134	156
0	1397	232.78673097134	156
0	1409	234.631320092281	157
0	1409	234.631320092281	157
0	1409	234.631320092281	157
0	1421	236.501710012242	158
0	1421	236.501710012242	158
0	1421	236.501710012242	158
0	1426	237.801996250557	159
0	1426	237.801996250557	159
0	1426	237.801996250557	159
0	1428	238.859268732755	160
0	1428	238.859268732755	160
0	1428	238.859268732755	160
1	4	2.035777949758	1
1	4	2.035777949758	2
1	4	2.035777949758	3
1	14	3.815336600849	4
1	14	3.815336600849	5
1	14	3.815336600849	6
1	32	9.431258848419	7
1	32	9.431258848419	8
1	32	9.431258848419	9
1	44	11.12358426189	10
1	44	11.12358426189	11
1	44	11.12358426189	12
1	56	12.552076988563	13
1	56	12.552076988563	14
1	56	12.552076988563	15
1	61	13.773007938897	16
1	61	13.773007938897	17
1	61	13.773007938897	18
1	75	16.622073783674	19
1	75	16.622073783674	20
1	75	16.622073783674	21
1	87	17.557348508972	22
1	87	17.557348508972	23
1	87	17.557348508972	24
1	99	18.630033196332	25
1	99	18.630033196332	26
1	99	18.630033196332	27
1	113	22.171783988758	28
1	113	22.171783988758	29
1	113	22.171783988758	30
1	125	23.132101778991	31
1	125	23.132101778991	32
1	125	23.132101778991	33
1	132	24.54024611498	34
1	132	24.54024611498	35
1	132	24.54024611498	36
1	144	25.652708849728	37
1	144	25.652708849728	38
1	144	25.652708849728	39
1	158	29.501312440226	40
1	158	29.501312440226	41
1	158	29.501312440226	42
1	167	31.042048697636	43
1	167	31.042048697636	44
1	167	31.042048697636	45
1	179	32.711728289084	46
1	179	32.711728289084	47
1	179	32.711728289084	48
1	191	34.514772798024	49
1	191	34.514772798024	50
1	191	34.514772798024	51
1	203	35.57475339213	52
1	203	35.57475339213	53
1	203	35.57475339213	54
1	215	37.320705773891	55
1	215	37.320705773891	56
1	215	37.320705773891	57
1	227	38.699804848666	58
1	227	38.699804848666	59
1	227	38.699804848666	60
1	239	40.149073086749	61
1	239	40.149073086749	62
1	239	40.149073086749	63
1	257	46.007036775071	64
1	257	46.007036775071	65
1	257	46.007036775071	66
1	262	47.941445980558	67
1	262	47.941445980558	68
1	262	47.941445980558	69
1	278	52.071121349744	70
1	278	52.071121349744	71
1	278	52.071121349744	72
1	292	55.329895154116	73
1	292	55.329895154116	74
1	292	55.329895154116	75
1	304	57.29289120448	76
1	304	57.29289120448	77
1	304	57.29289120448	78
1	318	59.995521488563	79
1	318	59.995521488563	80
1	318	59.995521488563	81
1	330	61.218692793689	82
1	330	61.218692793689	83
1	330	61.218692793689	84
1	344	64.184427542781	85
1	344	64.184427542781	86
1	344	64.184427542781	87
1	356	65.469467164236	88
1	356	65.469467164236	89
1	356	65.469467164236	90
1	368	66.671275961897	91
1	368	66.671275961897	92
1	368	66.671275961897	93
1	380	67.756218736926	94
1	380	67.756218736926	95
1	380	67.756218736926	96
1	392	69.778312826278	97
1	392	69.778312826278	98
1	392	69.778312826278	99
1	404	70.970502372781	100
1	404	70.970502372781	101
1	404	70.970502372781	102
1	416	72.787514684257	103
1	416	72.787514684257	104
1	416	72.787514684257	105
1	430	74.974132892944	106
1	430	74.974132892944	107
1	430	74.974132892944	108
1	444	77.830463056819	109
1	444	77.830463056819	110
1	444	77.830463056819	111
1	456	79.520284639805	112
1	456	79.520284639805	113
1	456	79.520284639805	114
1	461	81.304402078891	115
1	461	81.304402078891	116
1	461	81.304402078891	117
1	473	82.648835208521	118
1	473	82.648835208521	119
1	473	82.648835208521	120
1	482	84.499506219861	121
1	482	84.499506219861	122
1	482	84.499506219861	123
1	496	87.712966365754	124
1	496	87.712966365754	125
1	496	87.712966365754	126
1	508	88.849298224368	127
1	508	88.849298224368	128
1	508	88.849298224368	129
1	520	90.667517484415	130
1	520	90.667517484415	131
1	520	90.667517484415	132
1	532	92.163697286991	133
1	532	92.163697286991	134
1	532	92.163697286991	135
1	544	94.01618175548	136
1	544	94.01618175548	137
1	544	94.01618175548	138
1	551	95.881949209198	139
1	551	95.881949209198	140
1	551	95.881949209198	141
1	565	99.031548363585	142
1	565	99.031548363585	143
1	565	99.031548363585	144
1	577	100.192288422328	145
1	577	100.192288422328	146
1	577	100.192288422328	147
1	589	101.464248623137	148
1	589	101.464248623137	149
1	589	101.464248623137	150
1	601	103.003774841464	151
1	601	103.003774841464	152
1	601	103.003774841464	153
1	614	107.00696256131	154
1	614	107.00696256131	155
1	614	107.00696256131	156
1	623	108.776523339211	157
1	623	108.776523339211	158
1	623	108.776523339211	159
1	637	111.342441097848	160
1	637	111.342441097848	161
1	637	111.342441097848	162
1	649	112.813962636367	163
1	649	112.813962636367	164
1	649	112.813962636367	165
1	661	113.953019914323	166
1	661	113.953019914323	167
1	661	113.953019914323	168
1	675	116.199320884071	169
1	675	116.199320884071	170
1	675	116.199320884071	171
1	687	118.105039487298	172
1	687	118.105039487298	173
1	687	118.105039487298	174
1	699	119.694973512749	175
1	699	119.694973512749	176
1	699	119.694973512749	177
1	711	121.425087839786	178
1	711	121.425087839786	179
1	711	121.425087839786	180
1	721	123.213028930918	181
1	721	123.213028930918	182
1	721	123.213028930918	183
1	735	125.959358674973	184
1	735	125.959358674973	185
1	735	125.959358674973	186
1	747	129.394203340056	187
1	747	129.394203340056	188
1	747	129.394203340056	189
1	759	130.291217296081	190
1	759	130.291217296081	191
1	759	130.291217296081	192
1	771	132.105017002723	193
1	771	132.105017002723	194
1	771	132.105017002723	195
1	783	133.551971629676	196
1	783	133.551971629676	197
1	783	133.551971629676	198
1	795	135.016172388912	199
1	795	135.016172388912	200
1	795	135.016172388912	201
1	807	136.961451830465	202
1	807	136.961451830465	203
1	807	136.961451830465	204
1	819	138.356880834623	205
1	819	138.356880834623	206
1	819	138.356880834623	207
1	831	139.631353219641	208
1	831	139.631353219641	209
1	831	139.631353219641	210
1	840	141.552049859881	211
1	840	141.552049859881	212
1	840	141.552049859881	213
1	854	144.141859974668	214
1	854	144.141859974668	215
1	854	144.141859974668	216
1	866	145.769198554657	217
1	866	145.769198554657	218
1	866	145.769198554657	219
1	878	146.872329282995	220
1	878	146.872329282995	221
1	878	146.872329282995	222
1	892	150.709400805404	223
1	892	150.709400805404	224
1	892	150.709400805404	225
1	906	153.808351985797	226
1	906	153.808351985797	227
1	906	153.808351985797	228
1	918	155.767200422635	229
1	918	155.767200422635	230
1	918	155.767200422635	231
1	930	157.350355898407	232
1	930	157.350355898407	233
1	930	157.350355898407	234
1	942	158.750519318945	235
1	942	158.750519318945	236
1	942	158.750519318945	237
1	954	160.707343630969	238
1	954	160.707343630969	239
1	954	160.707343630969	240
1	966	162.229442616809	241
1	966	162.229442616809	242
1	966	162.229442616809	243
1	978	164.132963759341	244
1	978	164.132963759341	245
1	978	164.132963759341	246
1	990	165.553961844599	247
1	990	165.553961844599	248
1	990	165.553961844599	249
1	1004	168.868606367171	250
1	1004	168.868606367171	251
1	1004	168.868606367171	252
1	1018	171.986103616705	253
1	1018	171.986103616705	254
1	1018	171.986103616705	255
1	1030	173.442166839728	256
1	1030	173.442166839728	257
1	1030	173.442166839728	258
1	1037	175.151858869327	259
1	1037	175.151858869327	260
1	1037	175.151858869327	261
1	1049	176.291332444676	262
1	1049	176.291332444676	263
1	1049	176.291332444676	264
1	1058	178.974513647449	265
1	1058	178.974513647449	266
1	1058	178.974513647449	267
1	1070	180.276384757303	268
1	1070	180.276384757303	269
1	1070	180.276384757303	270
1	1082	182.019078449117	271
1	1082	182.019078449117	272
1	1082	182.019078449117	273
1	1094	183.3839970698	274
1	1094	183.3839970698	275
1	1094	183.3839970698	276
1	1106	185.161229324648	277
1	1106	185.161229324648	278
1	1106	185.161229324648	279
1	1118	186.762780301468	280
1	1118	186.762780301468	281
1	1118	186.762780301468	282
1	1127	189.815743701875	283
1	1127	189.815743701875	284
1	1127	189.815743701875	285
1	1134	190.955197492868	286
1	1134	190.955197492868	287
1	1134	190.955197492868	288
1	1146	192.668019548827	289
1	1146	192.668019548827	290
1	1146	192.668019548827	291
1	1160	196.286608323066	292
1	1160	196.286608323066	293
1	1160	196.286608323066	294
1	1172	197.549961140694	295
1	1172	197.549961140694	296
1	1172	197.549961140694	297
1	1184	198.888661369775	298
1	1184	198.888661369775	299
1	1184	198.888661369775	300
1	1196	200.671558533306	301
1	1196	200.671558533306	302
1	1196	200.671558533306	303
1	1208	202.568566949123	304
1	1208	202.568566949123	305
1	1208	202.568566949123	306
1	1220	204.377971373796	307
1	1220	204.377971373796	308
1	1220	204.377971373796	309
1	1232	205.800155556667	310
1	1232	205.800155556667	311
1	1232	205.800155556667	312
1	1239	206.765087687317	313
1	1239	206.765087687317	314
1	1239	206.765087687317	315
1	1251	208.334262257195	316
1	1251	208.334262257195	317
1	1251	208.334262257195	318
1	1256	209.326562107694	319
1	1256	209.326562107694	320
1	1256	209.326562107694	321
1	1270	211.812832156368	322
1	1270	211.812832156368	323
1	1270	211.812832156368	324
1	1277	213.310748228807	325
1	1277	213.310748228807	326
1	1277	213.310748228807	327
1	1282	214.82178843174	328
1	1282	214.82178843174	329
1	1282	214.82178843174	330
1	1296	217.696554503558	331
1	1296	217.696554503558	332
1	1296	217.696554503558	333
1	1305	219.434813141577	334
1	1305	219.434813141577	335
1	1305	219.434813141577	336
1	1317	220.370068127181	337
1	1317	220.370068127181	338
1	1317	220.370068127181	339
1	1329	221.646665934592	340
1	1329	221.646665934592	341
1	1329	221.646665934592	342
1	1341	222.970176047296	343
1	1341	222.970176047296	344
1	1341	222.970176047296	345
1	1353	224.869093846742	346
1	1353	224.869093846742	347
1	1353	224.869093846742	348
1	1360	226.738463187805	349
1	1360	226.738463187805	350
1	1360	226.738463187805	351
1	1374	229.976980523144	352
1	1374	229.976980523144	353
1	1374	229.976980523144	354
1	1386	231.862380624426	355
1	1386	231.862380624426	356
1	1386	231.862380624426	357
1	1398	232.992282442377	358
1	1398	232.992282442377	359
1	1398	232.992282442377	360
1	1410	234.86404046479	361
1	1410	234.86404046479	362
1	1410	234.86404046479	363
1	1422	236.710338525124	364
1	1422	236.710338525124	365
1	1422	236.710338525124	366
1	1429	239.056551101901	367
1	1429	239.056551101901	368
1	1429	239.056551101901	369
2	4	2.035777949758	1
2	8	2.396191821685	2
2	14	3.815336600849	3
2	18	4.179960076306	4
2	24	4.531994973127	5
2	32	9.431258848419	6
2	37	9.847594692092	7
2	39	9.910260299412	8
2	44	11.12358426189	9
2	48	11.412323169635	10
2	51	11.533487719877	11
2	56	12.552076988563	12
2	61	13.773007938897	13
2	67	14.219477596013	14
2	68	14.246940975087	15
2	75	16.622073783674	16
2	80	16.981184993649	17
2	81	16.993474301249	18
2	87	17.557348508972	19
2	92	18.012260950624	20
2	96	18.353909218803	21
2	99	18.630033196332	22
2	102	18.912816080728	23
2	107	19.104328480079	24
2	113	22.171783988758	25
2	120	22.662592052369	26
2	125	23.132101778991	27
2	129	23.56623058795	28
2	132	24.54024611498	29
2	135	24.779313316408	30
2	138	24.951605681768	31
2	144	25.652708849728	32
2	147	25.892782672893	33
2	151	26.171096882122	34
2	158	29.501312440226	35
2	162	29.842721820182	36
2	165	30.050172335132	37
2	167	31.042048697636	38
2	171	31.444095620086	39
2	173	31.462414605284	40
2	179	32.711728289084	41
2	183	33.03480922447	42
2	187	33.237994330585	43
2	191	34.514772798024	44
2	196	34.803149612072	45
2	197	34.832163350043	46
2	203	35.57475339213	47
2	208	36.044688306575	48
2	215	37.320705773891	49
2	219	37.656527947416	50
2	225	38.147875636192	51
2	227	38.699804848666	52
2	230	38.972065057809	53
2	239	40.149073086749	54
2	244	40.534528409613	55
2	257	46.007036775071	56
2	262	47.941445980558	57
2	268	48.304603918143	58
2	278	52.071121349744	59
2	282	52.376117392729	60
2	292	55.329895154116	61
2	296	55.664846323052	62
2	297	55.678021903217	63
2	304	57.29289120448	64
2	310	57.87055521564	65
2	311	57.874911530502	66
2	318	59.995521488563	67
2	323	60.363998434324	68
2	327	60.566718604288	69
2	330	61.218692793689	70
2	335	61.709752605899	71
2	340	62.015717764069	72
2	344	64.184427542781	73
2	349	64.565125105464	74
2	352	64.664838715989	75
2	356	65.469467164236	76
2	360	65.82290974267	77
2	368	66.671275961897	78
2	380	67.756218736926	79
2	384	68.082623914133	80
2	387	68.281404142257	81
2	392	69.778312826278	82
2	397	70.223385524322	83
2	399	70.275380696266	84
2	404	70.970502372781	85
2	411	71.310238932622	86
2	416	72.787514684257	87
2	420	73.240587449708	88
2	421	73.283972582005	89
2	430	74.974132892944	90
2	434	75.315588067805	91
2	439	75.666669022882	92
2	444	77.830463056819	93
2	449	78.287433363575	94
2	456	79.520284639805	95
2	461	81.304402078891	96
2	466	81.710582353243	97
2	473	82.648835208521	98
2	477	82.949595204994	99
2	480	83.030602910623	100
2	482	84.499506219861	101
2	489	85.024197385421	102
2	496	87.712966365754	103
2	500	88.090363163007	104
2	502	88.199639096759	105
2	508	88.849298224368	106
2	513	89.274268481357	107
2	514	89.288090400126	108
2	520	90.667517484415	109
2	525	91.255353534505	110
2	529	91.568265589585	111
2	532	92.163697286991	112
2	537	92.672217000399	113
2	544	94.01618175548	114
2	548	94.316316739739	115
2	551	95.881949209198	116
2	555	96.18427405166	117
2	557	96.2425262925	118
2	565	99.031548363585	119
2	577	100.192288422328	120
2	581	100.543712283964	121
2	587	101.080603722268	122
2	589	101.464248623137	123
2	601	103.003774841464	124
2	606	103.468534451955	125
2	607	103.468710502695	126
2	614	107.00696256131	127
2	623	108.776523339211	128
2	627	109.129022564001	129
2	637	111.342441097848	130
2	644	111.762095614156	131
2	649	112.813962636367	132
2	657	113.224675299146	133
2	661	113.953019914323	134
2	668	114.489838102801	135
2	675	116.199320884071	136
2	680	116.558500854663	137
2	687	118.105039487298	138
2	691	118.421814270197	139
2	694	118.546819484821	140
2	699	119.694973512749	141
2	706	120.196366897014	142
2	711	121.425087839786	143
2	716	121.827121388479	144
2	721	123.213028930918	145
2	726	123.567291452611	146
2	735	125.959358674973	147
2	747	129.394203340056	148
2	753	129.779296820847	149
2	754	129.818381496674	150
2	759	130.291217296081	151
2	764	130.771917099845	152
2	769	131.277825502336	153
2	771	132.105017002723	154
2	776	132.492814598526	155
2	781	132.819485801691	156
2	783	133.551971629676	157
2	787	133.850268709194	158
2	795	135.016172388912	159
2	807	136.961451830465	160
2	811	137.371277043423	161
2	816	137.772074416559	162
2	819	138.356880834623	163
2	824	138.734774430672	164
2	825	138.830181819609	165
2	831	139.631353219641	166
2	837	140.165050084922	167
2	840	141.552049859881	168
2	844	141.860655898636	169
2	846	142.013062914833	170
2	854	144.141859974668	171
2	858	144.473629413308	172
2	866	145.769198554657	173
2	871	146.121072027046	174
2	875	146.450546043034	175
2	878	146.872329282995	176
2	883	147.307070859493	177
2	884	147.395259088428	178
2	892	150.709400805404	179
2	899	151.172902406362	180
2	906	153.808351985797	181
2	910	154.200102406248	182
2	911	154.202629767757	183
2	918	155.767200422635	184
2	928	156.660454205673	185
2	930	157.350355898407	186
2	934	157.746953896107	187
2	936	157.808939114659	188
2	942	158.750519318945	189
2	946	159.154088999474	190
2	954	160.707343630969	191
2	959	161.096713336742	192
2	966	162.229442616809	193
2	971	162.729063502571	194
2	978	164.132963759341	195
2	983	164.572538420998	196
2	988	164.874642163753	197
2	990	165.553961844599	198
2	995	165.843806843754	199
2	1004	168.868606367171	200
2	1008	169.151271806961	201
2	1011	169.40525582649	202
2	1018	171.986103616705	203
2	1022	172.294911266282	204
2	1024	172.345989091026	205
2	1030	173.442166839728	206
2	1035	173.854268473866	207
2	1037	175.151858869327	208
2	1041	175.490841287546	209
2	1047	175.924377945074	210
2	1049	176.291332444676	211
2	1054	176.793489621663	212
2	1058	178.974513647449	213
2	1063	179.352497126614	214
2	1064	179.384744291113	215
2	1070	180.276384757303	216
2	1075	180.776601314501	217
2	1079	181.06525570195	218
2	1082	182.019078449117	219
2	1087	182.401412506294	220
2	1094	183.3839970698	221
2	1104	184.240958263711	222
2	1106	185.161229324648	223
2	1110	185.515344775179	224
2	1113	185.610695506039	225
2	1118	186.762780301468	226
2	1127	189.815743701875	227
2	1134	190.955197492868	228
2	1138	191.300021815984	229
2	1143	191.728304348818	230
2	1146	192.668019548827	231
2	1150	193.093381027377	232
2	1152	193.149206965668	233
2	1160	196.286608323066	234
2	1164	196.605400552032	235
2	1172	197.549961140694	236
2	1178	197.945786677847	237
2	1179	198.066466486664	238
2	1184	198.888661369775	239
2	1189	199.286538148921	240
2	1194	199.648895088315	241
2	1196	200.671558533306	242
2	1201	201.036661588606	243
2	1202	201.129526986894	244
2	1208	202.568566949123	245
2	1213	202.903199904433	246
2	1218	203.251557143692	247
2	1220	204.377971373796	248
2	1226	204.877766812893	249
2	1227	204.907817988048	250
2	1232	205.800155556667	251
2	1237	206.131707107531	252