version 3
run General-1-20231019-15:54:20-24860
attr configname General
attr datetime 20231019-15:54:20
attr datetimef 20231019-155420
attr experiment General
attr inifile omnetpp.ini
attr iterationvars ""
attr iterationvarsd ""
attr iterationvarsf ""
attr measurement ""
attr network Reliability
attr processid 24860
attr repetition 1
attr replication #1
attr resultdir results
attr runnumber 1
attr seedset 1
config network Reliability
config Reliability.node[*].transmissionTime "uniform(1s, 2s)"
config Reliability.node[*].delayTime "uniform(0.01s, 0.2s)"
config Reliability.node[*].lossProbability 0.2
config record-eventlog true
config sim-time-limit 240s
config repeat 5

vector 0 Reliability.node[0] txVector ETV
vector 1 Reliability.node[1] txVector ETV
vector 2 Reliability.node[1] rxVector ETV
vector 3 Reliability.node[0] rxVector ETV
vector 4 Reliability.node[3] txVector ETV
vector 5 Reliability.node[3] rxVector ETV
vector 6 Reliability.node[4] txVector ETV
vector 7 Reliability.node[4] rxVector ETV
vector 8 Reliability.node[2] txVector ETV
vector 9 Reliability.node[2] rxVector ETV
vector 10 Reliability.node[5] rxVector ETV
vector 11 Reliability.node[5] e2eVector ETV
0	1	0.089234179703	1
0	1	0.089234179703	1
0	1	0.089234179703	1
0	13	1.809558668991	2
0	13	1.809558668991	2
0	13	1.809558668991	2
0	25	3.253011562747	3
0	25	3.253011562747	3
0	25	3.253011562747	3
0	37	5.129400708831	4
0	37	5.129400708831	4
0	37	5.129400708831	4
0	49	6.271520841752	5
0	49	6.271520841752	5
0	49	6.271520841752	5
0	61	7.565134985025	6
0	61	7.565134985025	6
0	61	7.565134985025	6
0	73	8.826113966412	7
0	73	8.826113966412	7
0	73	8.826113966412	7
0	85	10.729515879301	8
0	85	10.729515879301	8
0	85	10.729515879301	8
0	97	12.377265275109	9
0	97	12.377265275109	9
0	97	12.377265275109	9
0	109	13.955654882479	10
0	109	13.955654882479	10
0	109	13.955654882479	10
0	121	15.720247452965	11
0	121	15.720247452965	11
0	121	15.720247452965	11
0	128	17.474123646159	12
0	128	17.474123646159	12
0	128	17.474123646159	12
0	140	18.983933924351	13
0	140	18.983933924351	13
0	140	18.983933924351	13
0	152	20.784566597434	14
0	152	20.784566597434	14
0	152	20.784566597434	14
0	164	22.566525060104	15
0	164	22.566525060104	15
0	164	22.566525060104	15
0	176	24.147883989734	16
0	176	24.147883989734	16
0	176	24.147883989734	16
0	188	25.910457127381	17
0	188	25.910457127381	17
0	188	25.910457127381	17
0	190	27.540174635945	18
0	190	27.540174635945	18
0	190	27.540174635945	18
0	202	28.63559388032	19
0	202	28.63559388032	19
0	202	28.63559388032	19
0	214	30.407771909729	20
0	214	30.407771909729	20
0	214	30.407771909729	20
0	226	31.702283456343	21
0	226	31.702283456343	21
0	226	31.702283456343	21
0	238	32.72380826448	22
0	238	32.72380826448	22
0	238	32.72380826448	22
0	250	33.965297400839	23
0	250	33.965297400839	23
0	250	33.965297400839	23
0	260	35.772657925616	24
0	260	35.772657925616	24
0	260	35.772657925616	24
0	272	37.172073216996	25
0	272	37.172073216996	25
0	272	37.172073216996	25
0	274	38.922094981073	26
0	274	38.922094981073	26
0	274	38.922094981073	26
0	286	39.958564683216	27
0	286	39.958564683216	27
0	286	39.958564683216	27
0	288	41.388811960005	28
0	288	41.388811960005	28
0	288	41.388811960005	28
0	300	42.809886716659	29
0	300	42.809886716659	29
0	300	42.809886716659	29
0	307	44.337601361683	30
0	307	44.337601361683	30
0	307	44.337601361683	30
0	317	45.40463341249	31
0	317	45.40463341249	31
0	317	45.40463341249	31
0	331	46.974127823839	32
0	331	46.974127823839	32
0	331	46.974127823839	32
0	343	48.307412129248	33
0	343	48.307412129248	33
0	343	48.307412129248	33
0	350	49.92921835685	34
0	350	49.92921835685	34
0	350	49.92921835685	34
0	362	51.828282356615	35
0	362	51.828282356615	35
0	362	51.828282356615	35
0	374	53.47958668962	36
0	374	53.47958668962	36
0	374	53.47958668962	36
0	386	54.992248392085	37
0	386	54.992248392085	37
0	386	54.992248392085	37
0	398	56.518674322291	38
0	398	56.518674322291	38
0	398	56.518674322291	38
0	410	58.360084384334	39
0	410	58.360084384334	39
0	410	58.360084384334	39
0	422	60.158688628235	40
0	422	60.158688628235	40
0	422	60.158688628235	40
0	434	61.722897373493	41
0	434	61.722897373493	41
0	434	61.722897373493	41
0	446	63.489108753278	42
0	446	63.489108753278	42
0	446	63.489108753278	42
0	448	64.850126223992	43
0	448	64.850126223992	43
0	448	64.850126223992	43
0	460	66.604987702919	44
0	460	66.604987702919	44
0	460	66.604987702919	44
0	462	67.642415642859	45
0	462	67.642415642859	45
0	462	67.642415642859	45
0	472	69.260929211396	46
0	472	69.260929211396	46
0	472	69.260929211396	46
0	474	70.876233443273	47
0	474	70.876233443273	47
0	474	70.876233443273	47
0	486	72.498729341784	48
0	486	72.498729341784	48
0	486	72.498729341784	48
0	498	74.346519322255	49
0	498	74.346519322255	49
0	498	74.346519322255	49
0	510	76.285405800333	50
0	510	76.285405800333	50
0	510	76.285405800333	50
0	522	77.783389107678	51
0	522	77.783389107678	51
0	522	77.783389107678	51
0	527	79.627719059009	52
0	527	79.627719059009	52
0	527	79.627719059009	52
0	534	80.984129147259	53
0	534	80.984129147259	53
0	534	80.984129147259	53
0	536	82.686005678381	54
0	536	82.686005678381	54
0	536	82.686005678381	54
0	543	84.565277446182	55
0	543	84.565277446182	55
0	543	84.565277446182	55
0	545	86.084293434284	56
0	545	86.084293434284	56
0	545	86.084293434284	56
0	557	87.667731965314	57
0	557	87.667731965314	57
0	557	87.667731965314	57
0	569	89.043166797961	58
0	569	89.043166797961	58
0	569	89.043166797961	58
0	581	90.252499234051	59
0	581	90.252499234051	59
0	581	90.252499234051	59
0	586	92.007390693881	60
0	586	92.007390693881	60
0	586	92.007390693881	60
0	598	93.69710464089	61
0	598	93.69710464089	61
0	598	93.69710464089	61
0	610	95.341465723122	62
0	610	95.341465723122	62
0	610	95.341465723122	62
0	622	96.588992272158	63
0	622	96.588992272158	63
0	622	96.588992272158	63
0	624	98.32223734388	64
0	624	98.32223734388	64
0	624	98.32223734388	64
0	636	99.485326767553	65
0	636	99.485326767553	65
0	636	99.485326767553	65
0	648	100.692952426736	66
0	648	100.692952426736	66
0	648	100.692952426736	66
0	650	102.465786859047	67
0	650	102.465786859047	67
0	650	102.465786859047	67
0	662	103.66838898056	68
0	662	103.66838898056	68
0	662	103.66838898056	68
0	674	104.974939603245	69
0	674	104.974939603245	69
0	674	104.974939603245	69
0	676	106.05504325277	70
0	676	106.05504325277	70
0	676	106.05504325277	70
0	688	107.947507104723	71
0	688	107.947507104723	71
0	688	107.947507104723	71
0	695	109.054090979163	72
0	695	109.054090979163	72
0	695	109.054090979163	72
0	707	110.585549301355	73
0	707	110.585549301355	73
0	707	110.585549301355	73
0	719	112.144453107732	74
0	719	112.144453107732	74
0	719	112.144453107732	74
0	731	113.177152614928	75
0	731	113.177152614928	75
0	731	113.177152614928	75
0	733	114.297919802954	76
0	733	114.297919802954	76
0	733	114.297919802954	76
0	745	115.654373663831	77
0	745	115.654373663831	77
0	745	115.654373663831	77
0	757	117.08072181547	78
0	757	117.08072181547	78
0	757	117.08072181547	78
0	759	119.030753530682	79
0	759	119.030753530682	79
0	759	119.030753530682	79
0	761	120.463735041561	80
0	761	120.463735041561	80
0	761	120.463735041561	80
0	773	121.624162427968	81
0	773	121.624162427968	81
0	773	121.624162427968	81
0	785	122.875801569436	82
0	785	122.875801569436	82
0	785	122.875801569436	82
0	797	123.8864295095	83
0	797	123.8864295095	83
0	797	123.8864295095	83
0	807	125.30500753166	84
0	807	125.30500753166	84
0	807	125.30500753166	84
0	819	127.013824831581	85
0	819	127.013824831581	85
0	819	127.013824831581	85
0	826	128.186429451339	86
0	826	128.186429451339	86
0	826	128.186429451339	86
0	838	129.60153293086	87
0	838	129.60153293086	87
0	838	129.60153293086	87
0	850	131.409810945045	88
0	850	131.409810945045	88
0	850	131.409810945045	88
0	862	132.859642463622	89
0	862	132.859642463622	89
0	862	132.859642463622	89
0	864	134.576413278121	90
0	864	134.576413278121	90
0	864	134.576413278121	90
0	873	136.00207864179	91
0	873	136.00207864179	91
0	873	136.00207864179	91
0	875	137.633725269117	92
0	875	137.633725269117	92
0	875	137.633725269117	92
0	880	139.022341696198	93
0	880	139.022341696198	93
0	880	139.022341696198	93
0	882	140.536516740338	94
0	882	140.536516740338	94
0	882	140.536516740338	94
0	884	142.31186870381	95
0	884	142.31186870381	95
0	884	142.31186870381	95
0	896	143.774707821084	96
0	896	143.774707821084	96
0	896	143.774707821084	96
0	908	145.28318408516	97
0	908	145.28318408516	97
0	908	145.28318408516	97
0	920	146.84884619585	98
0	920	146.84884619585	98
0	920	146.84884619585	98
0	932	148.797683079147	99
0	932	148.797683079147	99
0	932	148.797683079147	99
0	934	150.138062373854	100
0	934	150.138062373854	100
0	934	150.138062373854	100
0	939	151.902995422601	101
0	939	151.902995422601	101
0	939	151.902995422601	101
0	941	153.253651930371	102
0	941	153.253651930371	102
0	941	153.253651930371	102
0	953	154.262970992017	103
0	953	154.262970992017	103
0	953	154.262970992017	103
0	964	155.306505254356	104
0	964	155.306505254356	104
0	964	155.306505254356	104
0	977	157.287428934013	105
0	977	157.287428934013	105
0	977	157.287428934013	105
0	989	158.736307766407	106
0	989	158.736307766407	106
0	989	158.736307766407	106
0	999	159.961389643491	107
0	999	159.961389643491	107
0	999	159.961389643491	107
0	1008	161.251687643003	108
0	1008	161.251687643003	108
0	1008	161.251687643003	108
0	1010	162.594245083515	109
0	1010	162.594245083515	109
0	1010	162.594245083515	109
0	1022	164.246034356883	110
0	1022	164.246034356883	110
0	1022	164.246034356883	110
0	1034	166.104771046551	111
0	1034	166.104771046551	111
0	1034	166.104771046551	111
0	1039	167.776200215915	112
0	1039	167.776200215915	112
0	1039	167.776200215915	112
0	1051	169.001926083468	113
0	1051	169.001926083468	113
0	1051	169.001926083468	113
0	1061	170.976329548635	114
0	1061	170.976329548635	114
0	1061	170.976329548635	114
0	1073	172.533289904824	115
0	1073	172.533289904824	115
0	1073	172.533289904824	115
0	1085	173.726706305637	116
0	1085	173.726706305637	116
0	1085	173.726706305637	116
0	1092	175.575002795436	117
0	1092	175.575002795436	117
0	1092	175.575002795436	117
0	1104	177.438831939247	118
0	1104	177.438831939247	118
0	1104	177.438831939247	118
0	1116	179.380853084267	119
0	1116	179.380853084267	119
0	1116	179.380853084267	119
0	1118	181.113227989177	120
0	1118	181.113227989177	120
0	1118	181.113227989177	120
0	1130	182.584044006538	121
0	1130	182.584044006538	121
0	1130	182.584044006538	121
0	1142	183.648474260351	122
0	1142	183.648474260351	122
0	1142	183.648474260351	122
0	1154	185.063959934401	123
0	1154	185.063959934401	123
0	1154	185.063959934401	123
0	1166	186.659585036455	124
0	1166	186.659585036455	124
0	1166	186.659585036455	124
0	1176	187.838793643169	125
0	1176	187.838793643169	125
0	1176	187.838793643169	125
0	1188	189.428617285216	126
0	1188	189.428617285216	126
0	1188	189.428617285216	126
0	1200	190.630733849598	127
0	1200	190.630733849598	127
0	1200	190.630733849598	127
0	1212	192.38380450511	128
0	1212	192.38380450511	128
0	1212	192.38380450511	128
0	1214	193.589526826168	129
0	1214	193.589526826168	129
0	1214	193.589526826168	129
0	1216	195.350329287002	130
0	1216	195.350329287002	130
0	1216	195.350329287002	130
0	1228	197.069094187465	131
0	1228	197.069094187465	131
0	1228	197.069094187465	131
0	1240	198.442501315499	132
0	1240	198.442501315499	132
0	1240	198.442501315499	132
0	1252	200.310871686904	133
0	1252	200.310871686904	133
0	1252	200.310871686904	133
0	1264	202.18181729538	134
0	1264	202.18181729538	134
0	1264	202.18181729538	134
0	1276	203.260955766892	135
0	1276	203.260955766892	135
0	1276	203.260955766892	135
0	1288	205.253656638671	136
0	1288	205.253656638671	136
0	1288	205.253656638671	136
0	1298	206.358845527867	137
0	1298	206.358845527867	137
0	1298	206.358845527867	137
0	1310	207.547313930584	138
0	1310	207.547313930584	138
0	1310	207.547313930584	138
0	1322	208.968720361708	139
0	1322	208.968720361708	139
0	1322	208.968720361708	139
0	1324	210.461601238583	140
0	1324	210.461601238583	140
0	1324	210.461601238583	140
0	1336	211.470874528751	141
0	1336	211.470874528751	141
0	1336	211.470874528751	141
0	1348	213.109229848372	142
0	1348	213.109229848372	142
0	1348	213.109229848372	142
0	1350	214.67127977952	143
0	1350	214.67127977952	143
0	1350	214.67127977952	143
0	1362	215.974138083287	144
0	1362	215.974138083287	144
0	1362	215.974138083287	144
0	1374	217.05066533771	145
0	1374	217.05066533771	145
0	1374	217.05066533771	145
0	1386	218.654972179445	146
0	1386	218.654972179445	146
0	1386	218.654972179445	146
0	1398	219.741939906614	147
0	1398	219.741939906614	147
0	1398	219.741939906614	147
0	1400	220.813550186461	148
0	1400	220.813550186461	148
0	1400	220.813550186461	148
0	1412	222.177290202003	149
0	1412	222.177290202003	149
0	1412	222.177290202003	149
0	1424	223.567900699914	150
0	1424	223.567900699914	150
0	1424	223.567900699914	150
0	1426	224.77728481067	151
0	1426	224.77728481067	151
0	1426	224.77728481067	151
0	1428	226.542011455052	152
0	1428	226.542011455052	152
0	1428	226.542011455052	152
0	1430	227.717725714554	153
0	1430	227.717725714554	153
0	1430	227.717725714554	153
0	1442	228.994925822482	154
0	1442	228.994925822482	154
0	1442	228.994925822482	154
0	1454	230.907805646655	155
0	1454	230.907805646655	155
0	1454	230.907805646655	155
0	1466	232.749542471605	156
0	1466	232.749542471605	156
0	1466	232.749542471605	156
0	1478	234.447165009916	157
0	1478	234.447165009916	157
0	1478	234.447165009916	157
0	1490	235.965197575163	158
0	1490	235.965197575163	158
0	1490	235.965197575163	158
0	1499	237.866806124454	159
0	1499	237.866806124454	159
0	1499	237.866806124454	159
0	1511	238.872603517376	160
0	1511	238.872603517376	160
0	1511	238.872603517376	160
1	2	0.388699293248	1
1	2	0.388699293248	2
1	2	0.388699293248	3
1	14	1.958404596299	4
1	14	1.958404596299	5
1	14	1.958404596299	6
1	26	3.461460546911	7
1	26	3.461460546911	8
1	26	3.461460546911	9
1	38	5.299348679273	10
1	38	5.299348679273	11
1	38	5.299348679273	12
1	50	6.399793570954	13
1	50	6.399793570954	14
1	50	6.399793570954	15
1	62	7.78710303711	16
1	62	7.78710303711	17
1	62	7.78710303711	18
1	74	9.103907806025	19
1	74	9.103907806025	20
1	74	9.103907806025	21
1	86	10.958013598477	22
1	86	10.958013598477	23
1	86	10.958013598477	24
1	98	12.554774244123	25
1	98	12.554774244123	26
1	98	12.554774244123	27
1	110	14.238276560116	28
1	110	14.238276560116	29
1	110	14.238276560116	30
1	122	15.926814485097	31
1	122	15.926814485097	32
1	122	15.926814485097	33
1	129	17.58950187909	34
1	129	17.58950187909	35
1	129	17.58950187909	36
1	141	19.248402968962	37
1	141	19.248402968962	38
1	141	19.248402968962	39
1	153	20.914990480857	40
1	153	20.914990480857	41
1	153	20.914990480857	42
1	165	22.854880282711	43
1	165	22.854880282711	44
1	165	22.854880282711	45
1	177	24.373086587032	46
1	177	24.373086587032	47
1	177	24.373086587032	48
1	191	27.690107698269	49
1	191	27.690107698269	50
1	191	27.690107698269	51
1	203	28.844913839035	52
1	203	28.844913839035	53
1	203	28.844913839035	54
1	215	30.591873376149	55
1	215	30.591873376149	56
1	215	30.591873376149	57
1	227	31.81469886294	58
1	227	31.81469886294	59
1	227	31.81469886294	60
1	239	33.000786342504	61
1	239	33.000786342504	62
1	239	33.000786342504	63
1	251	34.122550438816	64
1	251	34.122550438816	65
1	251	34.122550438816	66
1	261	36.011681004706	67
1	261	36.011681004706	68
1	261	36.011681004706	69
1	275	39.195174610297	70
1	275	39.195174610297	71
1	275	39.195174610297	72
1	289	41.683834355454	73
1	289	41.683834355454	74
1	289	41.683834355454	75
1	301	43.022623429055	76
1	301	43.022623429055	77
1	301	43.022623429055	78
1	308	44.555684380928	79
1	308	44.555684380928	80
1	308	44.555684380928	81
1	320	45.640096472826	82
1	320	45.640096472826	83
1	320	45.640096472826	84
1	332	47.179048816239	85
1	332	47.179048816239	86
1	332	47.179048816239	87
1	344	48.455451838347	88
1	344	48.455451838347	89
1	344	48.455451838347	90
1	351	50.137895202693	91
1	351	50.137895202693	92
1	351	50.137895202693	93
1	363	51.947272820122	94
1	363	51.947272820122	95
1	363	51.947272820122	96
1	375	53.740938538291	97
1	375	53.740938538291	98
1	375	53.740938538291	99
1	387	55.22749638547	100
1	387	55.22749638547	101
1	387	55.22749638547	102
1	399	56.664515313591	103
1	399	56.664515313591	104
1	399	56.664515313591	105
1	411	58.607830607326	106
1	411	58.607830607326	107
1	411	58.607830607326	108
1	423	60.274830011289	109
1	423	60.274830011289	110
1	423	60.274830011289	111
1	435	61.920016777359	112
1	435	61.920016777359	113
1	435	61.920016777359	114
1	449	65.142279205736	115
1	449	65.142279205736	116
1	449	65.142279205736	117
1	463	67.889042621299	118
1	463	67.889042621299	119
1	463	67.889042621299	120
1	475	71.145416178126	121
1	475	71.145416178126	122
1	475	71.145416178126	123
1	487	72.636619891976	124
1	487	72.636619891976	125
1	487	72.636619891976	126
1	499	74.499954236037	127
1	499	74.499954236037	128
1	499	74.499954236037	129
1	511	76.514784518128	130
1	511	76.514784518128	131
1	511	76.514784518128	132
1	523	78.00251450994	133
1	523	78.00251450994	134
1	523	78.00251450994	135
1	528	79.780907908576	136
1	528	79.780907908576	137
1	528	79.780907908576	138
1	537	82.841673245902	139
1	537	82.841673245902	140
1	537	82.841673245902	141
1	546	86.227490262156	142
1	546	86.227490262156	143
1	546	86.227490262156	144
1	558	87.944866604308	145
1	558	87.944866604308	146
1	558	87.944866604308	147
1	570	89.246660441099	148
1	570	89.246660441099	149
1	570	89.246660441099	150
1	582	90.369545947987	151
1	582	90.369545947987	152
1	582	90.369545947987	153
1	587	92.213249335988	154
1	587	92.213249335988	155
1	587	92.213249335988	156
1	599	93.832679809873	157
1	599	93.832679809873	158
1	599	93.832679809873	159
1	611	95.518427352557	160
1	611	95.518427352557	161
1	611	95.518427352557	162
1	625	98.573687242955	163
1	625	98.573687242955	164
1	625	98.573687242955	165
1	637	99.725619948982	166
1	637	99.725619948982	167
1	637	99.725619948982	168
1	651	102.653141680912	169
1	651	102.653141680912	170
1	651	102.653141680912	171
1	663	103.899650535454	172
1	663	103.899650535454	173
1	663	103.899650535454	174
1	677	106.336923143126	175
1	677	106.336923143126	176
1	677	106.336923143126	177
1	689	108.171579273041	178
1	689	108.171579273041	179
1	689	108.171579273041	180
1	696	109.200116108983	181
1	696	109.200116108983	182
1	696	109.200116108983	183
1	708	110.75932705518	184
1	708	110.75932705518	185
1	708	110.75932705518	186
1	720	112.388774794283	187
1	720	112.388774794283	188
1	720	112.388774794283	189
1	734	114.449773760573	190
1	734	114.449773760573	191
1	734	114.449773760573	192
1	746	115.877204020118	193
1	746	115.877204020118	194
1	746	115.877204020118	195
1	762	120.746504319709	196
1	762	120.746504319709	197
1	762	120.746504319709	198
1	774	121.873900539643	199
1	774	121.873900539643	200
1	774	121.873900539643	201
1	786	122.987499999491	202
1	786	122.987499999491	203
1	786	122.987499999491	204
1	798	124.120793247344	205
1	798	124.120793247344	206
1	798	124.120793247344	207
1	808	125.417685067305	208
1	808	125.417685067305	209
1	808	125.417685067305	210
1	820	127.182908688493	211
1	820	127.182908688493	212
1	820	127.182908688493	213
1	827	128.483102730518	214
1	827	128.483102730518	215
1	827	128.483102730518	216
1	839	129.760479253901	217
1	839	129.760479253901	218
1	839	129.760479253901	219
1	851	131.572819214701	220
1	851	131.572819214701	221
1	851	131.572819214701	222
1	865	134.81928172695	223
1	865	134.81928172695	224
1	865	134.81928172695	225
1	876	137.878115423209	226
1	876	137.878115423209	227
1	876	137.878115423209	228
1	885	142.608496005824	229
1	885	142.608496005824	230
1	885	142.608496005824	231
1	897	143.981534347637	232
1	897	143.981534347637	233
1	897	143.981534347637	234
1	909	145.495591305054	235
1	909	145.495591305054	236
1	909	145.495591305054	237
1	921	146.996750348892	238
1	921	146.996750348892	239
1	921	146.996750348892	240
1	935	150.399169595065	241
1	935	150.399169595065	242
1	935	150.399169595065	243
1	942	153.407200886649	244
1	942	153.407200886649	245
1	942	153.407200886649	246
1	954	154.470069691816	247
1	954	154.470069691816	248
1	954	154.470069691816	249
1	966	155.479256289865	250
1	966	155.479256289865	251
1	966	155.479256289865	252
1	978	157.461107148358	253
1	978	157.461107148358	254
1	978	157.461107148358	255
1	990	158.867090520051	256
1	990	158.867090520051	257
1	990	158.867090520051	258
1	1000	160.136032690845	259
1	1000	160.136032690845	260
1	1000	160.136032690845	261
1	1011	162.783484411572	262
1	1011	162.783484411572	263
1	1011	162.783484411572	264
1	1023	164.422376165014	265
1	1023	164.422376165014	266
1	1023	164.422376165014	267
1	1035	166.308926313567	268
1	1035	166.308926313567	269
1	1035	166.308926313567	270
1	1040	167.931205269802	271
1	1040	167.931205269802	272
1	1040	167.931205269802	273
1	1052	169.159386284469	274
1	1052	169.159386284469	275
1	1052	169.159386284469	276
1	1062	171.175530563406	277
1	1062	171.175530563406	278
1	1062	171.175530563406	279
1	1074	172.651406390519	280
1	1074	172.651406390519	281
1	1074	172.651406390519	282
1	1086	173.961384599127	283
1	1086	173.961384599127	284
1	1086	173.961384599127	285
1	1093	175.771748911887	286
1	1093	175.771748911887	287
1	1093	175.771748911887	288
1	1105	177.665479399251	289
1	1105	177.665479399251	290
1	1105	177.665479399251	291
1	1119	181.271381406762	292
1	1119	181.271381406762	293
1	1119	181.271381406762	294
1	1131	182.836643567296	295
1	1131	182.836643567296	296
1	1131	182.836643567296	297
1	1143	183.926387807113	298
1	1143	183.926387807113	299
1	1143	183.926387807113	300
1	1155	185.292789721206	301
1	1155	185.292789721206	302
1	1155	185.292789721206	303
1	1167	186.943930243227	304
1	1167	186.943930243227	305
1	1167	186.943930243227	306
1	1179	188.12692039596	307
1	1179	188.12692039596	308
1	1179	188.12692039596	309
1	1189	189.715117682822	310
1	1189	189.715117682822	311
1	1189	189.715117682822	312
1	1201	190.903911088603	313
1	1201	190.903911088603	314
1	1201	190.903911088603	315
1	1217	195.608727993175	316
1	1217	195.608727993175	317
1	1217	195.608727993175	318
1	1229	197.361083156067	319
1	1229	197.361083156067	320
1	1229	197.361083156067	321
1	1241	198.691086877558	322
1	1241	198.691086877558	323
1	1241	198.691086877558	324
1	1253	200.514026712427	325
1	1253	200.514026712427	326
1	1253	200.514026712427	327
1	1265	202.32057865454	328
1	1265	202.32057865454	329
1	1265	202.32057865454	330
1	1277	203.487148385684	331
1	1277	203.487148385684	332
1	1277	203.487148385684	333
1	1289	205.438684268758	334
1	1289	205.438684268758	335
1	1289	205.438684268758	336
1	1299	206.580944897848	337
1	1299	206.580944897848	338
1	1299	206.580944897848	339
1	1311	207.684940621674	340
1	1311	207.684940621674	341
1	1311	207.684940621674	342
1	1325	210.619944479204	343
1	1325	210.619944479204	344
1	1325	210.619944479204	345
1	1337	211.734691626729	346
1	1337	211.734691626729	347
1	1337	211.734691626729	348
1	1351	214.781391708775	349
1	1351	214.781391708775	350
1	1351	214.781391708775	351
1	1363	216.270830143456	352
1	1363	216.270830143456	353
1	1363	216.270830143456	354
1	1375	217.21307443672	355
1	1375	217.21307443672	356
1	1375	217.21307443672	357
1	1387	218.828511864952	358
1	1387	218.828511864952	359
1	1387	218.828511864952	360
1	1401	221.109498018926	361
1	1401	221.109498018926	362
1	1401	221.109498018926	363
1	1413	222.407653315879	364
1	1413	222.407653315879	365
1	1413	222.407653315879	366
1	1431	228.012952228668	367
1	1431	228.012952228668	368
1	1431	228.012952228668	369
1	1443	229.250276799897	370
1	1443	229.250276799897	371
1	1443	229.250276799897	372
1	1455	231.058932118816	373
1	1455	231.058932118816	374
1	1455	231.058932118816	375
1	1467	232.865046047186	376
1	1467	232.865046047186	377
1	1467	232.865046047186	378
1	1479	234.725652428687	379
1	1479	234.725652428687	380
1	1479	234.725652428687	381
1	1491	236.154447034654	382
1	1491	236.154447034654	383
1	1491	236.154447034654	384
1	1500	238.032476949988	385
1	1500	238.032476949988	386
1	1500	238.032476949988	387
1	1512	239.126635232508	388
1	1512	239.126635232508	389
1	1512	239.126635232508	390
2	2	0.388699293248	1
2	11	1.129524535911	2
2	14	1.958404596299	3
2	20	2.357261023789	4
2	21	2.361775966987	5
2	26	3.461460546911	6
2	36	4.170183351943	7
2	38	5.299348679273	8
2	42	5.796493254061	9
2	48	6.181299186574	10
2	50	6.399793570954	11
2	54	6.646176483067	12
2	58	6.818702652617	13
2	62	7.78710303711	14
2	68	8.207034824276	15
2	69	8.211172347362	16
2	74	9.103907806025	17
2	78	9.422111336854	18
2	80	9.440441337622	19
2	86	10.958013598477	20
2	98	12.554774244123	21
2	103	12.904195364344	22
2	106	12.991451477679	23
2	110	14.238276560116	24
2	116	14.619304187871	25
2	122	15.926814485097	26
2	125	16.179793774627	27
2	129	17.58950187909	28
2	133	17.969394442227	29
2	135	18.025787769785	30
2	141	19.248402968962	31
2	145	19.685820239838	32
2	153	20.914990480857	33
2	158	21.266151890243	34
2	165	22.854880282711	35
2	168	23.129954793814	36
2	171	23.274605798202	37
2	177	24.373086587032	38
2	181	24.674159296159	39
2	183	24.790803472169	40
2	191	27.690107698269	41
2	195	27.940858114139	42
2	201	28.513765857392	43
2	203	28.844913839035	44
2	205	29.098991798859	45
2	209	29.38569225598	46
2	215	30.591873376149	47
2	219	30.902332990186	48
2	227	31.81469886294	49
2	231	32.194704408237	50
2	237	32.591936017719	51
2	239	33.000786342504	52
2	246	33.513917285695	53
2	251	34.122550438816	54
2	261	36.011681004706	55
2	266	36.38112821411	56
2	267	36.412137753688	57
2	275	39.195174610297	58
2	279	39.548691517032	59
2	282	39.675076722162	60
2	289	41.683834355454	61
2	293	41.94346258242	62
2	301	43.022623429055	63
2	305	43.359807984485	64
2	308	44.555684380928	65
2	312	44.968385191065	66
2	320	45.640096472826	67
2	324	45.968436753499	68
2	332	47.179048816239	69
2	337	47.525027092461	70
2	339	47.600423416529	71
2	344	48.455451838347	72
2	348	48.732596689	73
2	351	50.137895202693	74
2	355	50.436796634521	75
2	360	51.031420009325	76
2	363	51.947272820122	77
2	368	52.43514547516	78
2	369	52.457876058827	79
2	375	53.740938538291	80
2	380	54.054373066073	81
2	384	54.456490937275	82
2	387	55.22749638547	83
2	391	55.565020136924	84
2	397	56.076910796501	85
2	399	56.664515313591	86
2	404	57.028273874327	87
2	411	58.607830607326	88
2	416	58.945827916528	89
2	421	59.268263024122	90
2	423	60.274830011289	91
2	428	60.679268274872	92
2	432	60.949453966866	93
2	435	61.920016777359	94
2	440	62.431882067695	95
2	449	65.142279205736	96
2	453	65.521791852687	97
2	463	67.889042621299	98
2	468	68.405443927254	99
2	475	71.145416178126	100
2	479	71.605990721242	101
2	481	71.72627336988	102
2	487	72.636619891976	103
2	491	73.021380567162	104
2	494	73.164182461765	105
2	499	74.499954236037	106
2	504	74.901523024337	107
2	508	75.163026644238	108
2	511	76.514784518128	109
2	514	76.77541252678	110
2	520	77.078893985466	111
2	523	78.00251450994	112
2	528	79.780907908576	113
2	537	82.841673245902	114
2	542	83.180986989352	115
2	546	86.227490262156	116
2	550	86.553948818755	117
2	558	87.944866604308	118
2	563	88.316937202263	119
2	564	88.381613071515	120
2	570	89.246660441099	121
2	574	89.557768685658	122
2	577	89.666795466686	123
2	582	90.369545947987	124
2	587	92.213249335988	125
2	591	92.5839317014	126
2	597	93.098533823051	127
2	599	93.832679809873	128
2	603	94.179796087485	129
2	606	94.268060511026	130
2	611	95.518427352557	131
2	615	95.830508997576	132
2	616	95.835109610724	133
2	625	98.573687242955	134
2	632	99.035982001174	135
2	637	99.725619948982	136
2	642	100.170798757415	137
2	651	102.653141680912	138
2	655	102.977822823965	139
2	657	103.010211927198	140
2	663	103.899650535454	141
2	667	104.196612025349	142
2	677	106.336923143126	143
2	682	106.696981927034	144
2	683	106.751508956776	145
2	689	108.171579273041	146
2	693	108.533996864834	147
2	696	109.200116108983	148
2	701	109.646100805654	149
2	706	110.169204066616	150
2	708	110.75932705518	151
2	714	111.244112182063	152
2	720	112.388774794283	153
2	724	112.713633004307	154
2	726	112.805725900509	155
2	734	114.449773760573	156
2	738	114.740281607268	157
2	741	114.863836568764	158
2	746	115.877204020118	159
2	750	116.223321808143	160
2	752	116.285254105608	161
2	762	120.746504319709	162
2	768	121.245680640264	163
2	774	121.873900539643	164
2	781	122.376829012042	165
2	786	122.987499999491	166
2	790	123.337553855186	167
2	793	123.487902832337	168
2	798	124.120793247344	169
2	802	124.44981710664	170
2	808	125.417685067305	171
2	820	127.182908688493	172
2	824	127.526093429802	173
2	827	128.483102730518	174
2	831	128.806511252286	175
2	832	128.822256309561	176
2	839	129.760479253901	177
2	844	130.089943611401	178
2	846	130.252655738544	179
2	851	131.572819214701	180
2	856	131.875839560091	181
2	865	134.81928172695	182
2	870	135.137142824564	183
2	871	135.168110305784	184
2	876	137.878115423209	185
2	885	142.608496005824	186
2	889	142.923636878603	187
2	890	142.972738227873	188
2	897	143.981534347637	189
2	906	144.909574137151	190
2	909	145.495591305054	191
2	921	146.996750348892	192
2	926	147.29125557312	193
2	927	147.347155762649	194
2	935	150.399169595065	195
2	942	153.407200886649	196
2	946	153.769101537591	197
2	947	153.769421938867	198
2	954	154.470069691816	199
2	963	155.303457553982	200
2	966	155.479256289865	201
2	970	155.852601676272	202
2	972	155.946409621749	203
2	978	157.461107148358	204
2	984	157.859081973161	205
2	985	157.871321816992	206
2	990	158.867090520051	207
2	995	159.233163691815	208
2	1000	160.136032690845	209
2	1005	160.434953874728	210
2	1007	160.612369341111	211
2	1011	162.783484411572	212
2	1017	163.325921257096	213
2	1023	164.422376165014	214
2	1028	164.811275608669	215
2	1029	164.905492977094	216
2	1035	166.308926313567	217
2	1040	167.931205269802	218
2	1045	168.271548188625	219
2	1046	168.327291570337	220
2	1052	169.159386284469	221
2	1057	169.644384931218	222
2	1062	171.175530563406	223
2	1071	171.699058803899	224
2	1074	172.651406390519	225
2	1079	172.996318038433	226
2	1086	173.961384599127	227
2	1091	174.46007592712	228
2	1093	175.771748911887	229
2	1098	176.235559443209	230
2	1102	176.462513217816	231
2	1105	177.665479399251	232
2	1109	177.968537520688	233