version 3
run General-1-20231017-19:19:35-8222
attr configname General
attr datetime 20231017-19:19:35
attr datetimef 20231017-191935
attr experiment General
attr inifile omnetpp.ini
attr iterationvars ""
attr iterationvarsd ""
attr iterationvarsf ""
attr measurement ""
attr network Reliability
attr processid 8222
attr repetition 1
attr replication #1
attr resultdir results
attr runnumber 1
attr seedset 1
config network Reliability
config Reliability.node[*].transmissionTime "uniform(1s, 2s)"
config Reliability.node[*].delayTime "uniform(0.01s, 0.2s)"
config Reliability.node[*].lossProbability 0.0
config record-eventlog true
config sim-time-limit 240s
config repeat 5

vector 0 Reliability.node[0] txVector ETV
vector 1 Reliability.node[1] txVector ETV
vector 2 Reliability.node[1] rxVector ETV
vector 3 Reliability.node[0] rxVector ETV
vector 4 Reliability.node[2] txVector ETV
vector 5 Reliability.node[2] rxVector ETV
vector 6 Reliability.node[3] txVector ETV
vector 7 Reliability.node[3] rxVector ETV
vector 8 Reliability.node[4] txVector ETV
vector 9 Reliability.node[4] rxVector ETV
vector 10 Reliability.node[5] rxVector ETV
0	1	0.089234179703	1
0	1	0.089234179703	1
0	1	0.089234179703	1
0	13	1.809558668991	2
0	13	1.809558668991	2
0	13	1.809558668991	2
0	25	3.01401091798	3
0	25	3.01401091798	3
0	25	3.01401091798	3
0	37	4.706333534911	4
0	37	4.706333534911	4
0	37	4.706333534911	4
0	49	6.398210647635	5
0	49	6.398210647635	5
0	49	6.398210647635	5
0	61	7.846104172177	6
0	61	7.846104172177	6
0	61	7.846104172177	6
0	73	9.420221778916	7
0	73	9.420221778916	7
0	73	9.420221778916	7
0	85	10.935110886467	8
0	85	10.935110886467	8
0	85	10.935110886467	8
0	97	12.685922989042	9
0	97	12.685922989042	9
0	97	12.685922989042	9
0	109	14.307618708934	10
0	109	14.307618708934	10
0	109	14.307618708934	10
0	121	15.634263611052	11
0	121	15.634263611052	11
0	121	15.634263611052	11
0	133	16.771399360968	12
0	133	16.771399360968	12
0	133	16.771399360968	12
0	145	17.79970585008	13
0	145	17.79970585008	13
0	145	17.79970585008	13
0	157	18.818353140148	14
0	157	18.818353140148	14
0	157	18.818353140148	14
0	169	19.862905014892	15
0	169	19.862905014892	15
0	169	19.862905014892	15
0	181	21.606730872187	16
0	181	21.606730872187	16
0	181	21.606730872187	16
0	193	22.676753017008	17
0	193	22.676753017008	17
0	193	22.676753017008	17
0	205	23.941672575315	18
0	205	23.941672575315	18
0	205	23.941672575315	18
0	217	25.466342881908	19
0	217	25.466342881908	19
0	217	25.466342881908	19
0	229	27.415359203126	20
0	229	27.415359203126	20
0	229	27.415359203126	20
0	241	28.810234817099	21
0	241	28.810234817099	21
0	241	28.810234817099	21
0	253	30.142298389813	22
0	253	30.142298389813	22
0	253	30.142298389813	22
0	265	31.940901978063	23
0	265	31.940901978063	23
0	265	31.940901978063	23
0	277	33.124912183388	24
0	277	33.124912183388	24
0	277	33.124912183388	24
0	289	34.729628284118	25
0	289	34.729628284118	25
0	289	34.729628284118	25
0	301	36.052309284807	26
0	301	36.052309284807	26
0	301	36.052309284807	26
0	313	37.250879173056	27
0	313	37.250879173056	27
0	313	37.250879173056	27
0	325	39.053040257078	28
0	325	39.053040257078	28
0	325	39.053040257078	28
0	337	41.035857373737	29
0	337	41.035857373737	29
0	337	41.035857373737	29
0	349	42.348127211565	30
0	349	42.348127211565	30
0	349	42.348127211565	30
0	361	43.763975934246	31
0	361	43.763975934246	31
0	361	43.763975934246	31
0	373	45.515503754028	32
0	373	45.515503754028	32
0	373	45.515503754028	32
0	385	47.341910747466	33
0	385	47.341910747466	33
0	385	47.341910747466	33
0	397	48.598980045765	34
0	397	48.598980045765	34
0	397	48.598980045765	34
0	409	50.573720410587	35
0	409	50.573720410587	35
0	409	50.573720410587	35
0	421	51.940263507776	36
0	421	51.940263507776	36
0	421	51.940263507776	36
0	433	53.690435919333	37
0	433	53.690435919333	37
0	433	53.690435919333	37
0	445	55.440294230943	38
0	445	55.440294230943	38
0	445	55.440294230943	38
0	457	56.521768199168	39
0	457	56.521768199168	39
0	457	56.521768199168	39
0	469	58.148264357941	40
0	469	58.148264357941	40
0	469	58.148264357941	40
0	481	59.600669177603	41
0	481	59.600669177603	41
0	481	59.600669177603	41
0	493	60.611033436032	42
0	493	60.611033436032	42
0	493	60.611033436032	42
0	505	62.516842934191	43
0	505	62.516842934191	43
0	505	62.516842934191	43
0	517	63.781140412325	44
0	517	63.781140412325	44
0	517	63.781140412325	44
0	529	65.720026890403	45
0	529	65.720026890403	45
0	529	65.720026890403	45
0	541	67.348335931432	46
0	541	67.348335931432	46
0	541	67.348335931432	46
0	553	69.285204310557	47
0	553	69.285204310557	47
0	553	69.285204310557	47
0	565	70.470334706949	48
0	565	70.470334706949	48
0	565	70.470334706949	48
0	577	72.041050553909	49
0	577	72.041050553909	49
0	577	72.041050553909	49
0	589	73.416485386556	50
0	589	73.416485386556	50
0	589	73.416485386556	50
0	601	74.908557192544	51
0	601	74.908557192544	51
0	601	74.908557192544	51
0	613	76.432453327934	52
0	613	76.432453327934	52
0	613	76.432453327934	52
0	625	78.242442038032	53
0	625	78.242442038032	53
0	625	78.242442038032	53
0	637	79.891596231731	54
0	637	79.891596231731	54
0	637	79.891596231731	54
0	649	81.665395518653	55
0	649	81.665395518653	55
0	649	81.665395518653	55
0	661	82.864343444705	56
0	661	82.864343444705	56
0	661	82.864343444705	56
0	673	84.575657964572	57
0	673	84.575657964572	57
0	673	84.575657964572	57
0	685	85.778260086085	58
0	685	85.778260086085	58
0	685	85.778260086085	58
0	697	87.416478796051	59
0	697	87.416478796051	59
0	697	87.416478796051	59
0	709	88.716559840719	60
0	709	88.716559840719	60
0	709	88.716559840719	60
0	721	90.073621446154	61
0	721	90.073621446154	61
0	721	90.073621446154	61
0	733	91.813698989925	62
0	733	91.813698989925	62
0	733	91.813698989925	62
0	745	93.216919459057	63
0	745	93.216919459057	63
0	745	93.216919459057	63
0	757	94.997449012128	64
0	757	94.997449012128	64
0	757	94.997449012128	64
0	769	96.118216200154	65
0	769	96.118216200154	65
0	769	96.118216200154	65
0	781	97.562333307583	66
0	781	97.562333307583	66
0	781	97.562333307583	66
0	793	99.346790726651	67
0	793	99.346790726651	67
0	793	99.346790726651	67
0	805	100.414597658562	68
0	805	100.414597658562	68
0	805	100.414597658562	68
0	817	102.25257562602	69
0	817	102.25257562602	69
0	817	102.25257562602	69
0	829	104.055265147128	70
0	829	104.055265147128	70
0	829	104.055265147128	70
0	841	105.244816843309	71
0	841	105.244816843309	71
0	841	105.244816843309	71
0	853	106.940581063163	72
0	853	106.940581063163	72
0	853	106.940581063163	72
0	865	108.26090039325	73
0	865	108.26090039325	73
0	865	108.26090039325	73
0	877	109.958269269327	74
0	877	109.958269269327	74
0	877	109.958269269327	74
0	889	111.404386490006	75
0	889	111.404386490006	75
0	889	111.404386490006	75
0	901	112.579122802364	76
0	901	112.579122802364	76
0	901	112.579122802364	76
0	913	113.934430711093	77
0	913	113.934430711093	77
0	913	113.934430711093	77
0	925	115.397269828367	78
0	925	115.397269828367	78
0	925	115.397269828367	78
0	937	116.906883126014	79
0	937	116.906883126014	79
0	937	116.906883126014	79
0	949	118.546009976073	80
0	949	118.546009976073	80
0	949	118.546009976073	80
0	961	119.599004521389	81
0	961	119.599004521389	81
0	961	119.599004521389	81
0	973	120.787198784417	82
0	973	120.787198784417	82
0	973	120.787198784417	82
0	985	122.169666246167	83
0	985	122.169666246167	83
0	985	122.169666246167	83
0	997	124.120419679331	84
0	997	124.120419679331	84
0	997	124.120419679331	84
0	1009	125.995322231092	85
0	1009	125.995322231092	85
0	1009	125.995322231092	85
0	1021	127.444201063486	86
0	1021	127.444201063486	86
0	1021	127.444201063486	86
0	1033	128.5535839774	87
0	1033	128.5535839774	87
0	1033	128.5535839774	87
0	1045	129.770475460105	88
0	1045	129.770475460105	88
0	1045	129.770475460105	88
0	1057	131.091501774621	89
0	1057	131.091501774621	89
0	1057	131.091501774621	89
0	1069	132.581066734046	90
0	1069	132.581066734046	90
0	1069	132.581066734046	90
0	1081	133.723860010393	91
0	1081	133.723860010393	91
0	1081	133.723860010393	91
0	1093	135.007661844259	92
0	1093	135.007661844259	92
0	1093	135.007661844259	92
0	1105	136.759369565528	93
0	1105	136.759369565528	93
0	1105	136.759369565528	93
0	1117	138.295378064625	94
0	1117	138.295378064625	94
0	1117	138.295378064625	94
0	1129	139.749437119933	95
0	1129	139.749437119933	95
0	1129	139.749437119933	95
0	1141	140.831061099079	96
0	1141	140.831061099079	96
0	1141	140.831061099079	96
0	1153	142.804548491147	97
0	1153	142.804548491147	97
0	1153	142.804548491147	97
0	1165	144.536923396057	98
0	1165	144.536923396057	98
0	1165	144.536923396057	98
0	1177	146.409609559579	99
0	1177	146.409609559579	99
0	1177	146.409609559579	99
0	1189	148.264651280018	100
0	1189	148.264651280018	100
0	1189	148.264651280018	100
0	1201	149.866834928636	101
0	1201	149.866834928636	101
0	1201	149.866834928636	101
0	1213	151.619760842417	102
0	1213	151.619760842417	102
0	1213	151.619760842417	102
0	1225	153.341064191312	103
0	1225	153.341064191312	103
0	1225	153.341064191312	103
0	1237	154.923094170057	104
0	1237	154.923094170057	104
0	1237	154.923094170057	104
0	1249	156.618940306251	105
0	1249	156.618940306251	105
0	1249	156.618940306251	105
0	1261	158.323253710643	106
0	1261	158.323253710643	106
0	1261	158.323253710643	106
0	1273	159.643818362272	107
0	1273	159.643818362272	107
0	1273	159.643818362272	107
0	1285	161.332663621177	108
0	1285	161.332663621177	108
0	1285	161.332663621177	108
0	1297	162.76110609796	109
0	1297	162.76110609796	109
0	1297	162.76110609796	109
0	1309	164.444180463796	110
0	1309	164.444180463796	110
0	1309	164.444180463796	110
0	1321	166.2660298365	111
0	1321	166.2660298365	111
0	1321	166.2660298365	111
0	1333	167.438309543656	112
0	1333	167.438309543656	112
0	1333	167.438309543656	112
0	1345	168.999258298782	113
0	1345	168.999258298782	113
0	1345	168.999258298782	113
0	1357	170.973470927571	114
0	1357	170.973470927571	114
0	1357	170.973470927571	114
0	1369	172.846565303282	115
0	1369	172.846565303282	115
0	1369	172.846565303282	115
0	1381	174.731531824107	116
0	1381	174.731531824107	116
0	1381	174.731531824107	116
0	1393	176.369887143728	117
0	1393	176.369887143728	117
0	1393	176.369887143728	117
0	1405	177.614153806475	118
0	1405	177.614153806475	118
0	1405	177.614153806475	118
0	1417	178.799136775901	119
0	1417	178.799136775901	119
0	1417	178.799136775901	119
0	1429	179.899371422018	120
0	1429	179.899371422018	120
0	1429	179.899371422018	120
0	1441	181.303373032604	121
0	1441	181.303373032604	121
0	1441	181.303373032604	121
0	1453	183.233932846813	122
0	1453	183.233932846813	122
0	1453	183.233932846813	122
0	1465	184.338886509771	123
0	1465	184.338886509771	123
0	1465	184.338886509771	123
0	1477	185.696966421912	124
0	1477	185.696966421912	124
0	1477	185.696966421912	124
0	1489	186.97416652984	125
0	1489	186.97416652984	125
0	1489	186.97416652984	125
0	1501	188.739171674131	126
0	1501	188.739171674131	126
0	1501	188.739171674131	126
0	1513	189.833938591769	127
0	1513	189.833938591769	127
0	1513	189.833938591769	127
0	1525	191.115239859447	128
0	1525	191.115239859447	128
0	1525	191.115239859447	128
0	1537	193.067175027104	129
0	1537	193.067175027104	129
0	1537	193.067175027104	129
0	1549	194.252080616895	130
0	1549	194.252080616895	130
0	1549	194.252080616895	130
0	1561	195.257878009817	131
0	1561	195.257878009817	131
0	1561	195.257878009817	131
0	1573	197.015939668408	132
0	1573	197.015939668408	132
0	1573	197.015939668408	132
0	1585	198.906491952837	133
0	1585	198.906491952837	133
0	1585	198.906491952837	133
0	1597	200.103688301873	134
0	1597	200.103688301873	134
0	1597	200.103688301873	134
0	1609	201.356529783346	135
0	1609	201.356529783346	135
0	1609	201.356529783346	135
0	1621	202.737063863203	136
0	1621	202.737063863203	136
0	1621	202.737063863203	136
0	1633	204.670219629193	137
0	1633	204.670219629193	137
0	1633	204.670219629193	137
0	1645	206.315161295124	138
0	1645	206.315161295124	138
0	1645	206.315161295124	138
0	1657	207.571822282747	139
0	1657	207.571822282747	139
0	1657	207.571822282747	139
0	1669	209.460364384698	140
0	1669	209.460364384698	140
0	1669	209.460364384698	140
0	1681	211.134863228658	141
0	1681	211.134863228658	141
0	1681	211.134863228658	141
0	1693	212.818573561385	142
0	1693	212.818573561385	142
0	1693	212.818573561385	142
0	1705	214.488220163043	143
0	1705	214.488220163043	143
0	1705	214.488220163043	143
0	1717	216.313078724201	144
0	1717	216.313078724201	144
0	1717	216.313078724201	144
0	1729	217.537572203557	145
0	1729	217.537572203557	145
0	1729	217.537572203557	145
0	1741	218.727159609905	146
0	1741	218.727159609905	146
0	1741	218.727159609905	146
0	1753	220.605820585628	147
0	1753	220.605820585628	147
0	1753	220.605820585628	147
0	1765	222.498094512968	148
0	1765	222.498094512968	148
0	1765	222.498094512968	148
0	1777	224.105536402789	149
0	1777	224.105536402789	149
0	1777	224.105536402789	149
0	1789	225.654025493543	150
0	1789	225.654025493543	150
0	1789	225.654025493543	150
0	1801	227.207459196802	151
0	1801	227.207459196802	151
0	1801	227.207459196802	151
0	1813	228.634280547388	152
0	1813	228.634280547388	152
0	1813	228.634280547388	152
0	1825	229.929101423714	153
0	1825	229.929101423714	153
0	1825	229.929101423714	153
0	1837	231.560722172381	154
0	1837	231.560722172381	154
0	1837	231.560722172381	154
0	1849	232.68715306174	155
0	1849	232.68715306174	155
0	1849	232.68715306174	155
0	1861	234.486125903791	156
0	1861	234.486125903791	156
0	1861	234.486125903791	156
0	1873	236.051680136826	157
0	1873	236.051680136826	157
0	1873	236.051680136826	157
0	1885	237.791067923773	158
0	1885	237.791067923773	158
0	1885	237.791067923773	158
0	1897	239.594276115885	159
0	1897	239.594276115885	159
0	1897	239.594276115885	159
1	2	0.388699293248	1
1	2	0.388699293248	2
1	2	0.388699293248	3
1	14	2.019222819905	4
1	14	2.019222819905	5
1	14	2.019222819905	6
1	26	3.141643071925	7
1	26	3.141643071925	8
1	26	3.141643071925	9
1	38	4.853868204681	10
1	38	4.853868204681	11
1	38	4.853868204681	12
1	50	6.522149840738	13
1	50	6.522149840738	14
1	50	6.522149840738	15
1	62	8.0636274576	16
1	62	8.0636274576	17
1	62	8.0636274576	18
1	74	9.556815341763	19
1	74	9.556815341763	20
1	74	9.556815341763	21
1	86	11.153602513268	22
1	86	11.153602513268	23
1	86	11.153602513268	24
1	98	12.890563712232	25
1	98	12.890563712232	26
1	98	12.890563712232	27
1	110	14.446675375199	28
1	110	14.446675375199	29
1	110	14.446675375199	30
1	122	15.834033868918	31
1	122	15.834033868918	32
1	122	15.834033868918	33
1	134	16.901798769551	34
1	134	16.901798769551	35
1	134	16.901798769551	36
1	146	17.979596065775	37
1	146	17.979596065775	38
1	146	17.979596065775	39
1	158	19.106419302075	40
1	158	19.106419302075	41
1	158	19.106419302075	42
1	170	20.001811074774	43
1	170	20.001811074774	44
1	170	20.001811074774	45
1	182	21.840443779607	46
1	182	21.840443779607	47
1	182	21.840443779607	48
1	194	22.874561994828	49
1	194	22.874561994828	50
1	194	22.874561994828	51
1	206	24.161223576704	52
1	206	24.161223576704	53
1	206	24.161223576704	54
1	218	25.720046606059	55
1	218	25.720046606059	56
1	218	25.720046606059	57
1	230	27.595350805362	58
1	230	27.595350805362	59
1	230	27.595350805362	60
1	242	28.940259154642	61
1	242	28.940259154642	62
1	242	28.940259154642	63
1	254	30.318093206959	64
1	254	30.318093206959	65
1	254	30.318093206959	66
1	266	32.15424245308	67
1	266	32.15424245308	68
1	266	32.15424245308	69
1	278	33.250540615961	70
1	278	33.250540615961	71
1	278	33.250540615961	72
1	290	34.840514313551	73
1	290	34.840514313551	74
1	290	34.840514313551	75
1	302	36.292399987335	76
1	302	36.292399987335	77
1	302	36.292399987335	78
1	314	37.524257051245	79
1	314	37.524257051245	80
1	314	37.524257051245	81
1	326	39.208300330951	82
1	326	39.208300330951	83
1	326	39.208300330951	84
1	338	41.305225461393	85
1	338	41.305225461393	86
1	338	41.305225461393	87
1	350	42.468664482646	88
1	350	42.468664482646	89
1	350	42.468664482646	90
1	362	44.061708223007	91
1	362	44.061708223007	92
1	362	44.061708223007	93
1	374	45.66355532112	94
1	374	45.66355532112	95
1	374	45.66355532112	96
1	386	47.511524269929	97
1	386	47.511524269929	98
1	386	47.511524269929	99
1	398	48.787137383222	100
1	398	48.787137383222	101
1	398	48.787137383222	102
1	410	50.743408250424	103
1	410	50.743408250424	104
1	410	50.743408250424	105
1	422	52.173146751472	106
1	422	52.173146751472	107
1	422	52.173146751472	108
1	434	53.896005260504	109
1	434	53.896005260504	110
1	434	53.896005260504	111
1	446	55.682231532891	112
1	446	55.682231532891	113
1	446	55.682231532891	114
1	458	56.756468212455	115
1	458	56.756468212455	116
1	458	56.756468212455	117
1	470	58.417138559022	118
1	470	58.417138559022	119
1	470	58.417138559022	120
1	482	59.841411236809	121
1	482	59.841411236809	122
1	482	59.841411236809	123
1	494	60.853274460889	124
1	494	60.853274460889	125
1	494	60.853274460889	126
1	506	62.787923030481	127
1	506	62.787923030481	128
1	506	62.787923030481	129
1	518	63.934575326107	130
1	518	63.934575326107	131
1	518	63.934575326107	132
1	530	65.997292149708	133
1	530	65.997292149708	134
1	530	65.997292149708	135
1	542	67.626770833361	136
1	542	67.626770833361	137
1	542	67.626770833361	138
1	554	69.426898936073	139
1	554	69.426898936073	140
1	554	69.426898936073	141
1	566	70.691188027845	142
1	566	70.691188027845	143
1	566	70.691188027845	144
1	578	72.318185192903	145
1	578	72.318185192903	146
1	578	72.318185192903	147
1	590	73.673088888589	148
1	590	73.673088888589	149
1	590	73.673088888589	150
1	602	75.139305453287	151
1	602	75.139305453287	152
1	602	75.139305453287	153
1	614	76.719582191003	154
1	614	76.719582191003	155
1	614	76.719582191003	156
1	626	78.470733867305	157
1	626	78.470733867305	158
1	626	78.470733867305	159
1	638	80.118591269853	160
1	638	80.118591269853	161
1	638	80.118591269853	162
1	650	81.878241108514	163
1	650	81.878241108514	164
1	650	81.878241108514	165
1	662	83.098786062126	166
1	662	83.098786062126	167
1	662	83.098786062126	168
1	674	84.763012786437	169
1	674	84.763012786437	170
1	674	84.763012786437	171
1	686	86.070703333592	172
1	686	86.070703333592	173
1	686	86.070703333592	174
1	698	87.542120754471	175
1	698	87.542120754471	176
1	698	87.542120754471	177
1	710	88.941783777679	178
1	710	88.941783777679	179
1	710	88.941783777679	180
1	722	90.294600412861	181
1	722	90.294600412861	182
1	722	90.294600412861	183
1	734	92.057565807925	184
1	734	92.057565807925	185
1	734	92.057565807925	186
1	746	93.333132365424	187
1	746	93.333132365424	188
1	746	93.333132365424	189
1	758	95.207574183924	190
1	758	95.207574183924	191
1	758	95.207574183924	192
1	770	96.316420472644	193
1	770	96.316420472644	194
1	770	96.316420472644	195
1	782	97.75785951583	196
1	782	97.75785951583	197
1	782	97.75785951583	198
1	794	99.548417734439	199
1	794	99.548417734439	200
1	794	99.548417734439	201
1	806	100.658262528647	202
1	806	100.658262528647	203
1	806	100.658262528647	204
1	818	102.525890462436	205
1	818	102.525890462436	206
1	818	102.525890462436	207
1	830	104.267178131587	208
1	830	104.267178131587	209
1	830	104.267178131587	210
1	842	105.526737540402	211
1	842	105.526737540402	212
1	842	105.526737540402	213
1	854	107.068968127096	214
1	854	107.068968127096	215
1	854	107.068968127096	216
1	866	108.376827745359	217
1	866	108.376827745359	218
1	866	108.376827745359	219
1	878	110.173634834441	220
1	878	110.173634834441	221
1	878	110.173634834441	222
1	890	111.658907183395	223
1	890	111.658907183395	224
1	890	111.658907183395	225
1	902	112.720126349663	226
1	902	112.720126349663	227
1	902	112.720126349663	228
1	914	114.231058013107	229
1	914	114.231058013107	230
1	914	114.231058013107	231
1	926	115.642562278317	232
1	926	115.642562278317	233
1	926	115.642562278317	234
1	938	117.106373984165	235
1	938	117.106373984165	236
1	938	117.106373984165	237
1	950	118.667925936359	238
1	950	118.667925936359	239
1	950	118.667925936359	240
1	962	119.726292236331	241
1	962	119.726292236331	242
1	962	119.726292236331	243
1	974	121.08189848946	244
1	974	121.08189848946	245
1	974	121.08189848946	246
1	986	122.464293050685	247
1	986	122.464293050685	248
1	986	122.464293050685	249
1	998	124.249543511321	250
1	998	124.249543511321	251
1	998	124.249543511321	252
1	1010	126.169000445437	253
1	1010	126.169000445437	254
1	1010	126.169000445437	255
1	1022	127.627735511309	256
1	1022	127.627735511309	257
1	1022	127.627735511309	258
1	1034	128.779216958366	259
1	1034	128.779216958366	260
1	1034	128.779216958366	261
1	1046	130.044359869012	262
1	1046	130.044359869012	263
1	1046	130.044359869012	264
1	1058	131.266518873731	265
1	1058	131.266518873731	266
1	1058	131.266518873731	267
1	1070	132.853602578333	268
1	1070	132.853602578333	269
1	1070	132.853602578333	270
1	1082	133.900308590578	271
1	1082	133.900308590578	272
1	1082	133.900308590578	273
1	1094	135.13311775543	274
1	1094	135.13311775543	275
1	1094	135.13311775543	276
1	1106	136.900666889039	277
1	1106	136.900666889039	278
1	1106	136.900666889039	279
1	1118	138.570937427946	280
1	1118	138.570937427946	281
1	1118	138.570937427946	282
1	1130	139.91442051833	283
1	1130	139.91442051833	284
1	1130	139.91442051833	285
1	1142	141.120045116633	286
1	1142	141.120045116633	287
1	1142	141.120045116633	288
1	1154	143.008931503718	289
1	1154	143.008931503718	290
1	1154	143.008931503718	291
1	1166	144.827701626337	292
1	1166	144.827701626337	293
1	1166	144.827701626337	294
1	1178	146.616813044888	295
1	1178	146.616813044888	296
1	1178	146.616813044888	297
1	1190	148.535626779693	298
1	1190	148.535626779693	299
1	1190	148.535626779693	300
1	1202	150.099443769013	301
1	1202	150.099443769013	302
1	1202	150.099443769013	303
1	1214	151.745814406169	304
1	1214	151.745814406169	305
1	1214	151.745814406169	306
1	1226	153.534301843679	307
1	1226	153.534301843679	308
1	1226	153.534301843679	309
1	1238	155.21678340454	310
1	1238	155.21678340454	311
1	1238	155.21678340454	312
1	1250	156.795126511912	313
1	1250	156.795126511912	314
1	1250	156.795126511912	315
1	1262	158.571228283125	316
1	1262	158.571228283125	317
1	1262	158.571228283125	318
1	1274	159.882566187482	319
1	1274	159.882566187482	320
1	1274	159.882566187482	321
1	1286	161.477169412368	322
1	1286	161.477169412368	323
1	1286	161.477169412368	324
1	1298	163.022406107379	325
1	1298	163.022406107379	326
1	1298	163.022406107379	327
1	1310	164.564242351655	328
1	1310	164.564242351655	329
1	1310	164.564242351655	330
1	1322	166.529964264021	331
1	1322	166.529964264021	332
1	1322	166.529964264021	333
1	1334	167.566600496717	334
1	1334	167.566600496717	335
1	1334	167.566600496717	336
1	1346	169.147530837247	337
1	1346	169.147530837247	338
1	1346	169.147530837247	339
1	1358	171.108053974515	340
1	1358	171.108053974515	341
1	1358	171.108053974515	342
1	1370	172.958327228414	343
1	1370	172.958327228414	344
1	1370	172.958327228414	345
1	1382	174.995348922085	346
1	1382	174.995348922085	347
1	1382	174.995348922085	348
1	1394	176.572441061342	349
1	1394	176.572441061342	350
1	1394	176.572441061342	351
1	1406	177.737583995877	352
1	1406	177.737583995877	353
1	1406	177.737583995877	354
1	1418	178.959325960338	355
1	1418	178.959325960338	356
1	1418	178.959325960338	357
1	1430	180.060214429038	358
1	1430	180.060214429038	359
1	1430	180.060214429038	360
1	1442	181.488584277877	361
1	1442	181.488584277877	362
1	1442	181.488584277877	363
1	1454	183.40831261958	364
1	1454	183.40831261958	365
1	1454	183.40831261958	366
1	1466	184.457989793174	367
1	1466	184.457989793174	368
1	1466	184.457989793174	369
1	1478	185.992192936026	370
1	1478	185.992192936026	371
1	1478	185.992192936026	372
1	1490	187.143760753598	373
1	1490	187.143760753598	374
1	1490	187.143760753598	375
1	1502	188.890951046914	376
1	1502	188.890951046914	377
1	1502	188.890951046914	378
1	1514	189.950501258285	379
1	1514	189.950501258285	380
1	1514	189.950501258285	381
1	1526	191.316715178308	382
1	1526	191.316715178308	383
1	1526	191.316715178308	384
1	1538	193.366191182493	385
1	1538	193.366191182493	386
1	1538	193.366191182493	387
1	1550	194.417751442429	388
1	1550	194.417751442429	389
1	1550	194.417751442429	390
1	1562	195.448026290462	391
1	1562	195.448026290462	392
1	1562	195.448026290462	393
1	1574	197.241374453269	394
1	1574	197.241374453269	395
1	1574	197.241374453269	396
1	1586	199.052334964125	397
1	1586	199.052334964125	398
1	1586	199.052334964125	399
1	1598	200.27473036886	400
1	1598	200.27473036886	401
1	1598	200.27473036886	402
1	1610	201.56035806234	403
1	1610	201.56035806234	404
1	1610	201.56035806234	405
1	1622	203.005462308845	406
1	1622	203.005462308845	407
1	1622	203.005462308845	408
1	1634	204.917491095371	409
1	1634	204.917491095371	410
1	1634	204.917491095371	411
1	1646	206.427716437588	412
1	1646	206.427716437588	413
1	1646	206.427716437588	414
1	1658	207.776864255416	415
1	1658	207.776864255416	416
1	1658	207.776864255416	417
1	1670	209.606735247344	418
1	1670	209.606735247344	419
1	1670	209.606735247344	420
1	1682	211.367224246012	421
1	1682	211.367224246012	422
1	1682	211.367224246012	423
1	1694	213.07395355138	424
1	1694	213.07395355138	425
1	1694	213.07395355138	426
1	1706	214.629412290959	427
1	1706	214.629412290959	428
1	1706	214.629412290959	429
1	1718	216.498858887599	430
1	1718	216.498858887599	431
1	1718	216.498858887599	432
1	1730	217.752460467784	433
1	1730	217.752460467784	434
1	1730	217.752460467784	435
1	1742	218.980291094732	436
1	1742	218.980291094732	437
1	1742	218.980291094732	438
1	1754	220.880748198783	439
1	1754	220.880748198783	440
1	1754	220.880748198783	441
1	1766	222.774370760064	442
1	1766	222.774370760064	443
1	1766	222.774370760064	444
1	1778	224.282000910138	445
1	1778	224.282000910138	446
1	1778	224.282000910138	447
1	1790	225.771270244992	448
1	1790	225.771270244992	449
1	1790	225.771270244992	450
1	1802	227.378946467924	451
1	1802	227.378946467924	452
1	1802	227.378946467924	453
1	1814	228.906195596166	454
1	1814	228.906195596166	455
1	1814	228.906195596166	456
1	1826	230.057213623635	457
1	1826	230.057213623635	458
1	1826	230.057213623635	459
1	1838	231.801898228468	460
1	1838	231.801898228468	461
1	1838	231.801898228468	462
1	1850	232.972440872192	463
1	1850	232.972440872192	464
1	1850	232.972440872192	465
1	1862	234.666402583667	466
1	1862	234.666402583667	467
1	1862	234.666402583667	468
1	1874	236.264519063321	469
1	1874	236.264519063321	470
1	1874	236.264519063321	471
1	1886	237.9986633154	472
1	1886	237.9986633154	473
1	1886	237.9986633154	474
1	1898	239.782309732141	475
1	1898	239.782309732141	476
1	1898	239.782309732141	477
2	2	0.388699293248	1
2	7	0.677899843815	2
2	8	0.701531921263	3
2	14	2.019222819905	4
2	18	2.369711405458	5
2	19	2.371815289575	6
2	26	3.141643071925	7
2	30	3.542155317875	8
2	32	3.563886118353	9
2	38	4.853868204681	10
2	43	5.259449907897	11
2	46	5.346830799716	12
2	50	6.522149840738	13
2	56	6.81509988512	14
2	57	6.897648410732	15
2	62	8.0636274576	16
2	67	8.439488439761	17
2	68	8.54403987013	18
2	74	9.556815341763	19
2	80	9.954123963631	20
2	81	9.973377033896	21
2	86	11.153602513268	22
2	90	11.516100059794	23
2	92	11.607721354976	24
2	98	12.890563712232	25
2	102	13.32759346129	26
2	104	13.368512664388	27
2	110	14.446675375199	28
2	114	14.736268148827	29
2	117	14.95344279551	30
2	122	15.834033868918	31
2	125	16.10304555635	32
2	129	16.282996351961	33
2	134	16.901798769551	34
2	139	17.24358236627	35
2	144	17.445189949873	36
2	146	17.979596065775	37
2	150	18.335763332595	38
2	152	18.397211164062	39
2	158	19.106419302075	40
2	162	19.376143969206	41
2	164	19.477377046559	42
2	170	20.001811074774	43
2	174	20.341772707453	44
2	175	20.445737372435	45
2	182	21.840443779607	46
2	188	22.262150046201	47
2	190	22.402917357979	48
2	194	22.874561994828	49
2	198	23.178987095587	50
2	203	23.382791457293	51
2	206	24.161223576704	52
2	209	24.443782570739	53
2	212	24.59896903719	54
2	218	25.720046606059	55
2	226	26.219775919653	56
2	228	26.291841261692	57
2	230	27.595350805362	58
2	234	27.845974481862	59
2	238	27.980107569482	60
2	242	28.940259154642	61
2	246	29.367542971347	62
2	247	29.439122922286	63
2	254	30.318093206959	64
2	260	30.675964135621	65
2	261	30.744002843532	66
2	266	32.15424245308	67
2	271	32.496364803091	68
2	272	32.499973470311	69
2	278	33.250540615961	70
2	283	33.629678741748	71
2	287	33.71271376821	72
2	290	34.840514313551	73
2	294	35.153718060223	74
2	296	35.218779883815	75
2	302	36.292399987335	76
2	308	36.66585130886	77
2	312	36.755261490406	78
2	314	37.524257051245	79
2	319	37.858743066603	80
2	321	37.991637151471	81
2	326	39.208300330951	82
2	330	39.495624969497	83
2	333	39.690757420803	84
2	338	41.305225461393	85
2	343	41.67673580467	86
2	346	41.781813592531	87
2	350	42.468664482646	88
2	354	42.752434828007	89
2	357	42.953805066669	90
2	362	44.061708223007	91
2	367	44.440091471011	92
2	368	44.442013936703	93
2	374	45.66355532112	94
2	378	46.026064390935	95
2	381	46.088889049372	96
2	386	47.511524269929	97
2	392	47.948482636394	98
2	393	48.007990225375	99
2	398	48.787137383222	100
2	402	49.149471826623	101
2	404	49.221712158356	102
2	410	50.743408250424	103
2	416	51.226296024142	104
2	417	51.276270971663	105
2	422	52.173146751472	106
2	427	52.50058142951	107
2	428	52.568983179091	108
2	434	53.896005260504	109
2	438	54.293830998272	110
2	439	54.359030988041	111
2	446	55.682231532891	112
2	451	56.043364583165	113
2	452	56.044561008119	114
2	458	56.756468212455	115
2	461	56.994844924826	116
2	465	57.225154400497	117
2	470	58.417138559022	118
2	474	58.744361078657	119
2	475	58.824810204275	120
2	482	59.841411236809	121
2	488	60.24271146857	122
2	489	60.250722978798	123
2	494	60.853274460889	124
2	500	61.347429805778	125
2	502	61.426856625182	126
2	506	62.787923030481	127
2	511	63.253593922991	128
2	513	63.271118602341	129
2	518	63.934575326107	130
2	523	64.336144114407	131
2	525	64.389972009738	132
2	530	65.997292149708	133
2	535	66.32865200756	134
2	536	66.378926453587	135
2	542	67.626770833361	136
2	547	67.962052798577	137
2	548	68.064798920801	138
2	554	69.426898936073	139
2	560	69.768405649192	140
2	561	69.786479676518	141
2	566	70.691188027845	142
2	571	71.044574963372	143
2	573	71.124186756064	144
2	578	72.318185192903	145
2	583	72.690255790858	146
2	584	72.75493166011	147