version 3
run General-4-20231011-13:57:39-6857
attr configname General
attr datetime 20231011-13:57:39
attr datetimef 20231011-135739
attr experiment General
attr inifile omnetpp.ini
attr iterationvars ""
attr iterationvarsd ""
attr iterationvarsf ""
attr measurement ""
attr network Reliability
attr processid 6857
attr repetition 4
attr replication #4
attr resultdir results
attr runnumber 4
attr seedset 4
config network Reliability
config Reliability.node[*].transmissionTime "uniform(1s, 2s)"
config Reliability.node[*].delayTime "uniform(0.01s, 0.2s)"
config Reliability.node[*].lossProbability 0
config record-eventlog true
config sim-time-limit 240s
config repeat 5

vector 0 Reliability.node[0] txVector ETV
vector 1 Reliability.node[0] rxVector ETV
vector 2 Reliability.node[1] rxVector ETV
vector 3 Reliability.node[1] txVector ETV
vector 4 Reliability.node[3] rxVector ETV
vector 5 Reliability.node[3] txVector ETV
vector 6 Reliability.node[2] rxVector ETV
vector 7 Reliability.node[2] txVector ETV
vector 8 Reliability.node[4] rxVector ETV
vector 9 Reliability.node[4] txVector ETV
vector 10 Reliability.node[5] rxVector ETV
0	0	0	1
0	1	0.193735669288	2
0	1	0.193735669288	3
0	5	1.20545891291	3
0	5	1.20545891291	4
0	6	1.366430994277	5
0	6	1.366430994277	6
0	11	2.801222523828	7
0	11	2.801222523828	8
0	12	2.90387915229	9
0	12	2.90387915229	10
0	14	3.965064767669	11
0	14	3.965064767669	12
0	15	4.71582690245	13
0	15	4.71582690245	14
0	19	5.734851643587	15
0	19	5.734851643587	16
0	22	5.92171773423	17
0	22	5.92171773423	18
0	25	5.985311632317	18
0	25	5.985311632317	19
0	26	7.246283711207	20
0	26	7.246283711207	21
0	27	7.601140940706	22
0	27	7.601140940706	23
0	28	7.655097899647	24
0	28	7.655097899647	25
0	30	8.404507118783	26
0	30	8.404507118783	27
0	31	8.81232149634	28
0	31	8.81232149634	29
0	32	9.292708148403	30
0	32	9.292708148403	31
0	34	10.037171097047	32
0	34	10.037171097047	33
0	35	10.579726464026	34
0	35	10.579726464026	35
0	36	10.869705117229	36
0	36	10.869705117229	37
0	37	11.290850749978	38
0	37	11.290850749978	39
0	39	11.527361661284	39
0	39	11.527361661284	40
0	42	11.832636073143	41
0	42	11.832636073143	42
0	45	11.980107840197	42
0	45	11.980107840197	43
0	51	12.526992072391	44
0	51	12.526992072391	45
0	52	12.765206278922	46
0	52	12.765206278922	47
0	53	13.025155782089	48
0	53	13.025155782089	49
0	54	13.249412379837	50
0	54	13.249412379837	51
0	55	13.356527310842	52
0	55	13.356527310842	53
0	56	14.259585524483	54
0	56	14.259585524483	55
0	57	14.485714093129	56
0	57	14.485714093129	57
0	59	14.572222825294	58
0	59	14.572222825294	59
0	60	14.628719292203	60
0	60	14.628719292203	61
0	61	15.193363052937	62
0	61	15.193363052937	63
0	64	16.200360668212	64
0	64	16.200360668212	65
0	65	16.209940184413	66
0	65	16.209940184413	67
0	67	16.241230624778	67
0	67	16.241230624778	68
0	68	16.253472134284	69
0	68	16.253472134284	70
0	70	16.405371376468	71
0	70	16.405371376468	72
0	72	17.024498485639	73
0	72	17.024498485639	74
0	73	17.349087509181	75
0	73	17.349087509181	76
0	74	17.430256378654	77
0	74	17.430256378654	78
0	75	17.574087781179	79
0	75	17.574087781179	80
0	77	17.776477559392	81
0	77	17.776477559392	82
0	78	18.137348794884	83
0	78	18.137348794884	84
0	79	18.35201410469	85
0	79	18.35201410469	86
0	80	18.513440495872	87
0	80	18.513440495872	88
0	82	18.835357650571	89
0	82	18.835357650571	90
0	83	18.926920344499	91
0	83	18.926920344499	92
0	84	19.076735853962	93
0	84	19.076735853962	94
0	85	19.155861341464	94
0	85	19.155861341464	95
0	88	19.282811122288	96
0	88	19.282811122288	97
0	89	20.111543634062	98
0	89	20.111543634062	99
0	91	20.268799889184	100
0	91	20.268799889184	101
0	92	20.488388808589	102
0	92	20.488388808589	103
0	93	20.777943506061	104
0	93	20.777943506061	105
0	94	20.829556054016	106
0	94	20.829556054016	107
0	95	21.009674146113	108
0	95	21.009674146113	109
0	96	21.137071266141	110
0	96	21.137071266141	111
0	99	21.76902827117	112
0	99	21.76902827117	113
0	100	21.883619338091	114
0	100	21.883619338091	115
0	101	21.928883814765	116
0	101	21.928883814765	117
0	102	22.412513000348	118
0	102	22.412513000348	119
0	103	22.438057752238	120
0	103	22.438057752238	121
0	104	22.544692942476	122
0	104	22.544692942476	123
0	106	22.945567980216	124
0	106	22.945567980216	125
0	110	23.293210727212	126
0	110	23.293210727212	127
0	114	23.486165376303	128
0	114	23.486165376303	129
0	115	23.494228175422	130
0	115	23.494228175422	131
0	116	23.538452100464	131
0	116	23.538452100464	132
0	117	23.667120048863	133
0	117	23.667120048863	134
0	126	24.191913202084	135
0	126	24.191913202084	136
0	128	24.239499102251	136
0	128	24.239499102251	137
0	130	24.378474315232	138
0	130	24.378474315232	139
0	131	24.733226630178	140
0	131	24.733226630178	141
0	133	25.133676792777	142
0	133	25.133676792777	143
0	134	25.224202121928	144
0	134	25.224202121928	145
0	135	25.243470189906	146
0	135	25.243470189906	147
0	136	25.266180771858	148
0	136	25.266180771858	149
0	137	25.454839506342	150
0	137	25.454839506342	151
0	138	25.504118236159	152
0	138	25.504118236159	153
0	139	25.505296428359	154
0	139	25.505296428359	155
0	141	25.772610648372	156
0	141	25.772610648372	157
0	143	26.1783518298	158
0	143	26.1783518298	159
0	144	26.436044143562	160
0	144	26.436044143562	161
0	145	26.451390006569	162
0	145	26.451390006569	163
0	147	26.650070664396	164
0	147	26.650070664396	165
0	148	26.740674498628	166
0	148	26.740674498628	167
0	150	26.825045527494	168
0	150	26.825045527494	169
0	151	26.837574615986	170
0	151	26.837574615986	171
0	152	26.990718632982	172
0	152	26.990718632982	173
0	153	27.049023046245	174
0	153	27.049023046245	175
0	154	27.559272035307	176
0	154	27.559272035307	177
0	155	27.603144086006	178
0	155	27.603144086006	179
0	156	28.161457950405	180
0	156	28.161457950405	181
0	157	28.287080331144	182
0	157	28.287080331144	183
0	158	28.314737129015	184
0	158	28.314737129015	185
0	159	28.365089021302	186
0	159	28.365089021302	187
0	160	28.373850649991	188
0	160	28.373850649991	189
0	162	28.703694316831	190
0	162	28.703694316831	191
0	163	28.915903762261	192
0	163	28.915903762261	193
0	164	28.974210159241	194
0	164	28.974210159241	195
0	166	29.067944442908	195
0	166	29.067944442908	196
0	171	29.494586764825	197
0	171	29.494586764825	198
0	172	29.535177318196	199
0	172	29.535177318196	200
0	173	29.915364246261	201
0	173	29.915364246261	202
0	174	29.951082716533	203
0	174	29.951082716533	204
0	175	30.100351924465	205
0	175	30.100351924465	206
0	176	30.115188386195	207
0	176	30.115188386195	208
0	177	30.116735360159	209
0	177	30.116735360159	210
0	178	30.149684192192	211
0	178	30.149684192192	212
0	179	30.428039397898	213
0	179	30.428039397898	214
0	182	30.821223869024	214
0	182	30.821223869024	215
0	184	30.872649235151	215
0	184	30.872649235151	216
0	187	30.937370360651	217
0	187	30.937370360651	218
0	188	31.167467857528	219
0	188	31.167467857528	220
0	189	31.369649111749	221
0	189	31.369649111749	222
0	190	31.437531755927	223
0	190	31.437531755927	224
0	191	31.470810044228	225
0	191	31.470810044228	226
0	192	31.524366320646	227
0	192	31.524366320646	228
0	193	31.760043886995	229
0	193	31.760043886995	230
0	194	31.804066829062	231
0	194	31.804066829062	232
0	195	31.854057151911	233
0	195	31.854057151911	234
0	196	32.038694684904	235
0	196	32.038694684904	236
0	197	32.313248283894	237
0	197	32.313248283894	238
0	200	32.486480642611	239
0	200	32.486480642611	240
0	203	32.531445178719	241
0	203	32.531445178719	242
0	207	32.793103354557	243
0	207	32.793103354557	244
0	208	32.870912989656	245
0	208	32.870912989656	246
0	210	32.950637483806	247
0	210	32.950637483806	248
0	211	32.961746204548	249
0	211	32.961746204548	250
0	212	33.232221809593	251
0	212	33.232221809593	252
0	213	33.251050706943	253
0	213	33.251050706943	254
0	214	33.314313262624	255
0	214	33.314313262624	256
0	215	33.700250051304	257
0	215	33.700250051304	258
0	217	33.854866381929	258
0	217	33.854866381929	259
0	218	33.893427295428	260
0	218	33.893427295428	261
0	220	33.978636224333	262
0	220	33.978636224333	263
0	221	34.081228121087	264
0	221	34.081228121087	265
0	223	34.278676881421	266
0	223	34.278676881421	267
0	224	34.366679360847	268
0	224	34.366679360847	269
0	225	34.438551701878	270
0	225	34.438551701878	271
0	226	34.448083827074	272
0	226	34.448083827074	273
0	227	34.481564351194	274
0	227	34.481564351194	275
0	228	34.590454685646	276
0	228	34.590454685646	277
0	229	34.7273504537	278
0	229	34.7273504537	279
0	230	34.818970796707	280
0	230	34.818970796707	281
0	233	35.050803644161	282
0	233	35.050803644161	283
0	234	35.203678068375	284
0	234	35.203678068375	285
0	235	35.223135748103	286
0	235	35.223135748103	287
0	238	35.536062357763	287
0	238	35.536062357763	288
0	240	35.551014917488	289
0	240	35.551014917488	290
0	242	35.674128433651	291
0	242	35.674128433651	292
0	243	35.764527202574	293
0	243	35.764527202574	294
0	244	35.791436989005	295
0	244	35.791436989005	296
0	245	36.126903212363	297
0	245	36.126903212363	298
0	246	36.142992779001	299
0	246	36.142992779001	300
0	247	36.192053316429	301
0	247	36.192053316429	302
0	248	36.312891679652	303
0	248	36.312891679652	304
0	249	36.336114580321	305
0	249	36.336114580321	306
0	250	36.347061182645	307
0	250	36.347061182645	308
0	252	36.490551912281	309
0	252	36.490551912281	310
0	253	36.495292391065	311
0	253	36.495292391065	312
0	254	36.679724412556	313
0	254	36.679724412556	314
0	255	36.773283175582	315
0	255	36.773283175582	316
0	258	37.278204102447	317
0	258	37.278204102447	318
0	259	37.473169922328	318
0	259	37.473169922328	319
0	262	37.501591667582	320
0	262	37.501591667582	321
0	263	37.517592746987	322
0	263	37.517592746987	323
0	264	37.579344872653	324
0	264	37.579344872653	325
0	265	37.641025688121	326
0	265	37.641025688121	327
0	266	37.656640303283	328
0	266	37.656640303283	329
0	268	37.787008920961	330
0	268	37.787008920961	331
0	270	37.969511710772	332
0	270	37.969511710772	333
0	271	37.981659490438	334
0	271	37.981659490438	335
0	272	37.987165656076	336
0	272	37.987165656076	337
0	273	38.07145818746	338
0	273	38.07145818746	339
0	274	38.109333716867	340
0	274	38.109333716867	341
0	278	38.413453268509	342
0	278	38.413453268509	343
0	281	38.602837739564	344
0	281	38.602837739564	345
0	283	38.78775356753	346
0	283	38.78775356753	347
0	284	39.014650537622	348
0	284	39.014650537622	349
0	285	39.159241338406	350
0	285	39.159241338406	351
0	286	39.198670225733	352
0	286	39.198670225733	353
0	287	39.205582409666	354
0	287	39.205582409666	355
0	288	39.217217939974	356
0	288	39.217217939974	357
0	289	39.293933298405	358
0	289	39.293933298405	359
0	290	39.322964894207	360
0	290	39.322964894207	361
0	291	39.394515678097	362
0	291	39.394515678097	363
0	292	39.467303706528	364
0	292	39.467303706528	365
0	293	39.546516595697	366
0	293	39.546516595697	367
0	294	39.687580175738	368
0	294	39.687580175738	369
0	295	39.948840248999	370
0	295	39.948840248999	371
0	296	40.114260500919	372
0	296	40.114260500919	373
0	297	40.227227755089	374
0	297	40.227227755089	375
0	298	40.232877434532	376
0	298	40.232877434532	377
0	299	40.300435741016	378
0	299	40.300435741016	379
0	301	40.446647104175	379
0	301	40.446647104175	380
0	303	40.476008304827	381
0	303	40.476008304827	382
0	304	40.492493578517	383
0	304	40.492493578517	384
0	306	40.540918081621	385
0	306	40.540918081621	386
0	307	40.555706060404	387
0	307	40.555706060404	388
0	308	40.564154128972	389
0	308	40.564154128972	390
0	310	40.822388490884	391
0	310	40.822388490884	392
0	311	40.842834520654	393
0	311	40.842834520654	394
0	312	40.872866208476	395
0	312	40.872866208476	396
0	314	41.381715843976	397
0	314	41.381715843976	398
0	315	41.429419525483	399
0	315	41.429419525483	400
0	316	41.581605890573	401
0	316	41.581605890573	402
0	317	41.696362127918	403
0	317	41.696362127918	404
0	320	41.853345394589	405
0	320	41.853345394589	406
0	321	41.869072672178	407
0	321	41.869072672178	408
0	322	41.936573443159	409
0	322	41.936573443159	410
0	323	41.967767439849	411
0	323	41.967767439849	412
0	324	42.096057774567	413
0	324	42.096057774567	414
0	325	42.153600505515	415
0	325	42.153600505515	416
0	327	42.233384693939	417
0	327	42.233384693939	418
0	328	42.267986146552	419
0	328	42.267986146552	420
0	330	42.443168405822	421
0	330	42.443168405822	422
0	331	42.447366224878	423
0	331	42.447366224878	424
0	332	42.461524911546	425
0	332	42.461524911546	426
0	333	42.598158732113	427
0	333	42.598158732113	428
0	334	42.616891699179	429
0	334	42.616891699179	430
0	336	42.738198298	430
0	336	42.738198298	431
0	338	42.859966034352	432
0	338	42.859966034352	433
0	339	42.91807783851	434
0	339	42.91807783851	435
0	340	43.129906366037	436
0	340	43.129906366037	437
0	341	43.347464491812	438
0	341	43.347464491812	439
0	342	43.554600071202	440
0	342	43.554600071202	441
0	343	43.557841751713	442
0	343	43.557841751713	443
0	344	43.582490102819	444
0	344	43.582490102819	445
0	347	43.683795853819	446
0	347	43.683795853819	447
0	349	43.732738190232	447
0	349	43.732738190232	448
0	350	43.779844024307	449
0	350	43.779844024307	450
0	352	43.826076230556	451
0	352	43.826076230556	452
0	353	43.853225343229	453
0	353	43.853225343229	454
0	354	43.888609636859	455
0	354	43.888609636859	456
0	355	43.973886680925	457
0	355	43.973886680925	458
0	356	43.989657401069	459
0	356	43.989657401069	460
0	358	44.049522909851	461
0	358	44.049522909851	462
0	359	44.229706073223	463
0	359	44.229706073223	464
0	360	44.374779506034	465
0	360	44.374779506034	466
0	361	44.462278191035	467
0	361	44.462278191035	468
0	362	44.617816732468	469
0	362	44.617816732468	470
0	363	44.643858886778	471
0	363	44.643858886778	472
0	364	44.746547665748	473
0	364	44.746547665748	474
0	365	44.797736861179	475
0	365	44.797736861179	476
0	366	44.806958311203	477
0	366	44.806958311203	478
0	367	44.860614440005	479
0	367	44.860614440005	480
0	369	45.009682972024	481
0	369	45.009682972024	482
0	371	45.03868462743	483
0	371	45.03868462743	484
0	373	45.167977429659	485
0	373	45.167977429659	486
0	374	45.237376981704	487
0	374	45.237376981704	488
0	375	45.337289762269	489
0	375	45.337289762269	490
0	376	45.378154207068	490
0	376	45.378154207068	491
0	378	45.454724739161	492
0	378	45.454724739161	493
0	379	45.483924092919	494
0	379	45.483924092919	495
0	381	45.661398643365	496
0	381	45.661398643365	497
0	382	45.860200260987	498
0	382	45.860200260987	499
0	383	45.907523983061	500
0	383	45.907523983061	501
0	384	45.932137211595	502
0	384	45.932137211595	503
0	385	45.943132564391	504
0	385	45.943132564391	505
0	386	45.964405229132	506
0	386	45.964405229132	507
0	388	46.083907025302	508
0	388	46.083907025302	509
0	389	46.095318261103	510
0	389	46.095318261103	511
0	390	46.192527229578	512
0	390	46.192527229578	513
0	392	46.226862606092	514
0	392	46.226862606092	515
0	395	46.316857831619	516
0	395	46.316857831619	517
0	396	46.491691400577	518
0	396	46.491691400577	519
0	397	46.609294220845	520
0	397	46.609294220845	521
0	398	46.621204707695	522
0	398	46.621204707695	523
0	400	46.745911700021	524
0	400	46.745911700021	525
0	403	46.964306013857	526
0	403	46.964306013857	527
0	404	46.964459067405	528
0	404	46.964459067405	529
0	408	47.130724943998	530
0	408	47.130724943998	531
0	410	47.222427477275	532
0	410	47.222427477275	533
0	411	47.275293814303	534
0	411	47.275293814303	535
0	412	47.30442177431	536
0	412	47.30442177431	537
0	413	47.374374954118	538
0	413	47.374374954118	539
0	415	47.628462458483	540
0	415	47.628462458483	541
0	416	47.648310740216	542
0	416	47.648310740216	543
0	417	47.652531991523	544
0	417	47.652531991523	545
0	418	47.665652406072	546
0	418	47.665652406072	547
0	420	47.826876350728	548
0	420	47.826876350728	549
0	421	47.886202597392	549
0	421	47.886202597392	550
0	423	47.917275568161	551
0	423	47.917275568161	552
0	424	48.042087790358	553
0	424	48.042087790358	554
0	425	48.059788676579	555
0	425	48.059788676579	556
0	426	48.069071673622	557
0	426	48.069071673622	558
0	427	48.1009549513	559
0	427	48.1009549513	560
0	428	48.219215387984	561
0	428	48.219215387984	562
0	429	48.391869893386	563
0	429	48.391869893386	564
0	436	48.54564627228	565
0	436	48.54564627228	566
0	439	48.588904402986	567
0	439	48.588904402986	568
0	440	48.65142259417	569
0	440	48.65142259417	570
0	441	48.680119632879	571
0	441	48.680119632879	572
0	442	48.722127308414	573
0	442	48.722127308414	574
0	443	48.751473264269	575
0	443	48.751473264269	576
0	444	48.764718546351	577
0	444	48.764718546351	578
0	445	48.805137857527	579
0	445	48.805137857527	580
0	447	49.016874921142	581
0	447	49.016874921142	582
0	448	49.042061841405	583
0	448	49.042061841405	584
0	449	49.120251740765	585
0	449	49.120251740765	586
0	450	49.233808354747	587
0	450	49.233808354747	588
0	451	49.309535722702	589
0	451	49.309535722702	590
0	452	49.341079614281	591
0	452	49.341079614281	592
0	453	49.36101647217	593
0	453	49.36101647217	594
0	454	49.368727806772	595
0	454	49.368727806772	596
0	455	49.396129506675	597
0	455	49.396129506675	598
0	456	49.583189566987	599
0	456	49.583189566987	600
0	458	49.689553577832	601
0	458	49.689553577832	602
0	459	49.828728835297	603
0	459	49.828728835297	604
0	460	49.996098565218	605
0	460	49.996098565218	606
0	461	50.039962763055	607
0	461	50.039962763055	608
0	462	50.050203071344	609
0	462	50.050203071344	610
0	464	50.282706429523	611
0	464	50.282706429523	612
0	465	50.298382362652	613
0	465	50.298382362652	614
0	466	50.312369104751	615
0	466	50.312369104751	616
0	468	50.322732675079	616
0	468	50.322732675079	617
0	469	50.358994124186	618
0	469	50.358994124186	619
0	470	50.448086492705	620
0	470	50.448086492705	621
0	472	50.550872319893	622
0	472	50.550872319893	623
0	476	50.62601173651	624
0	476	50.62601173651	625
0	477	50.644144024058	626
0	477	50.644144024058	627
0	478	50.666440529486	628
0	478	50.666440529486	629
0	479	50.669280697091	630
0	479	50.669280697091	631
0	480	50.869878810977	632
0	480	50.869878810977	633
0	481	50.918888443983	634
0	481	50.918888443983	635
0	482	50.951703944343	636
0	482	50.951703944343	637
0	485	51.142721828373	638
0	485	51.142721828373	639
0	487	51.219881484208	640
0	487	51.219881484208	641
0	488	51.302170802641	642
0	488	51.302170802641	643
0	490	51.53788685779	643
0	490	51.53788685779	644
0	491	51.558200280613	645
0	491	51.558200280613	646
0	493	51.630770554521	647
0	493	51.630770554521	648
0	494	51.639605240286	649
0	494	51.639605240286	650
0	496	51.671442560521	651
0	496	51.671442560521	652
0	497	51.708652654245	653
0	497	51.708652654245	654
0	498	51.835400960215	655
0	498	51.835400960215	656
0	499	51.871282705067	657
0	499	51.871282705067	658
0	500	51.921604002878	659
0	500	51.921604002878	660
0	501	51.935825102687	661
0	501	51.935825102687	662
0	502	51.976250816903	663
0	502	51.976250816903	664
0	503	51.996362684571	665
0	503	51.996362684571	666
0	504	52.133313601886	667
0	504	52.133313601886	668
0	505	52.145790128184	669
0	505	52.145790128184	670
0	506	52.203524294507	671
0	506	52.203524294507	672
0	509	52.288319949496	673
0	509	52.288319949496	674
0	510	52.361924652055	674
0	510	52.361924652055	675
0	512	52.526258687391	676
0	512	52.526258687391	677
0	513	52.569696842284	678
0	513	52.569696842284	679
0	514	52.688954120369	680
0	514	52.688954120369	681
0	515	52.704583640198	682
0	515	52.704583640198	683
0	516	52.922420277116	684
0	516	52.922420277116	685
0	517	52.946412483763	686
0	517	52.946412483763	687
0	518	52.962374284786	688
0	518	52.962374284786	689
0	519	53.004231125484	690
0	519	53.004231125484	691
0	521	53.014584852218	692
0	521	53.014584852218	693
0	523	53.075201993845	694
0	523	53.075201993845	695
0	525	53.194025823548	695
0	525	53.194025823548	696
0	526	53.20190446657	697
0	526	53.20190446657	698
0	527	53.209944955108	699
0	527	53.209944955108	700
0	529	53.323890347232	701
0	529	53.323890347232	702
0	531	53.393642822561	703
0	531	53.393642822561	704
0	532	53.434569247343	705
0	532	53.434569247343	706
0	533	53.495218199182	707
0	533	53.495218199182	708
0	534	53.53850576855	709
0	534	53.53850576855	710
0	536	53.597750519684	710
0	536	53.597750519684	711
0	539	53.697690381721	712
0	539	53.697690381721	713
0	541	53.784947343594	714
0	541	53.784947343594	715
0	543	53.832984788616	716
0	543	53.832984788616	717
0	544	53.948008253982	718
0	544	53.948008253982	719
0	545	53.960498959512	720
0	545	53.960498959512	721
0	546	54.012611973467	722
0	546	54.012611973467	723
0	548	54.094238497133	724
0	548	54.094238497133	725
0	549	54.095147103672	726
0	549	54.095147103672	727
0	550	54.103774050816	728
0	550	54.103774050816	729
0	551	54.172540256578	730
0	551	54.172540256578	731
0	552	54.184785285929	732
0	552	54.184785285929	733
0	553	54.197054660336	734
0	553	54.197054660336	735
0	555	54.218323687259	736
0	555	54.218323687259	737
0	556	54.274783749899	738
0	556	54.274783749899	739
0	557	54.586813689945	740
0	557	54.586813689945	741
0	558	54.596756818666	742
0	558	54.596756818666	743
0	559	54.731970155913	744
0	559	54.731970155913	745
0	560	54.761436224363	746
0	560	54.761436224363	747
0	561	54.769987282145	748
0	561	54.769987282145	749
0	562	54.898678455823	750
0	562	54.898678455823	751
0	563	55.027099786369	752
0	563	55.027099786369	753
0	564	55.063051159226	754
0	564	55.063051159226	755
0	566	55.218934803473	756
0	566	55.218934803473	757
0	567	55.237623001817	758
0	567	55.237623001817	759
0	568	55.241103399179	760
0	568	55.241103399179	761
0	569	55.273705440263	762
0	569	55.273705440263	763
0	571	55.39090789673	764
0	571	55.39090789673	765
0	572	55.468019465262	766
0	572	55.468019465262	767
0	573	55.501331707279	768
0	573	55.501331707279	769
0	574	55.501658721647	770
0	574	55.501658721647	771
0	575	55.528311946711	772
0	575	55.528311946711	773
0	576	55.587990435293	774
0	576	55.587990435293	775
0	577	55.608284756814	776
0	577	55.608284756814	777
0	578	55.608683404215	778
0	578	55.608683404215	779
0	579	55.62905836916	780
0	579	55.62905836916	781
0	580	55.7312432941	782
0	580	55.7312432941	783
0	581	55.8251392678	784
0	581	55.8251392678	785
0	582	55.871821482025	786
0	582	55.871821482025	787
0	583	55.92816136202	788
0	583	55.92816136202	789
0	584	55.957173305632	790
0	584	55.957173305632	791
0	585	56.235338596431	792
0	585	56.235338596431	793
0	586	56.300930327468	794
0	586	56.300930327468	795
0	588	56.446436818137	796
0	588	56.446436818137	797
0	589	56.537746603562	798
0	589	56.537746603562	799
0	590	56.60341290114	800
0	590	56.60341290114	801
0	591	56.647157115431	802
0	591	56.647157115431	803
0	592	56.682834569733	804
0	592	56.682834569733	805
0	596	56.845156182817	806
0	596	56.845156182817	807
0	597	56.915897986894	808
0	597	56.915897986894	809
0	599	56.965664844785	810
0	599	56.965664844785	811
0	600	56.96862788643	812
0	600	56.96862788643	813
0	601	56.989278778999	814
0	601	56.989278778999	815
0	602	57.088485374749	816
0	602	57.088485374749	817
0	603	57.09442699232	818
0	603	57.09442699232	819
0	604	57.158917156794	820
0	604	57.158917156794	821
0	605	57.206749847081	822
0	605	57.206749847081	823
0	606	57.22766872687	824
0	606	57.22766872687	825
0	607	57.251392702064	826
0	607	57.251392702064	827
0	608	57.2871804252	828
0	608	57.2871804252	829
0	609	57.296128966657	830
0	609	57.296128966657	831
0	610	57.328842006664	832
0	610	57.328842006664	833
0	611	57.340455530346	834
0	611	57.340455530346	835
0	612	57.347637637715	836
0	612	57.347637637715	837
0	614	57.384972161751	837
0	614	57.384972161751	838
0	615	57.4261401457	839
0	615	57.4261401457	840
0	618	57.581034774879	841
0	618	57.581034774879	842
0	619	57.695840940615	843
0	619	57.695840940615	844
0	621	58.024702539058	845
0	621	58.024702539058	846
0	622	58.040994324538	847
0	622	58.040994324538	848
0	624	58.047845878541	849
0	624	58.047845878541	850
0	625	58.126016118831	851
0	625	58.126016118831	852
0	626	58.161115948541	853
0	626	58.161115948541	854
0	627	58.164879908932	855
0	627	58.164879908932	856
0	629	58.191742658906	857
0	629	58.191742658906	858
0	630	58.205546014053	859
0	630	58.205546014053	860
0	631	58.208677755252	860
0	631	58.208677755252	861
0	632	58.23544883049	862
0	632	58.23544883049	863
0	634	58.250955015576	864
0	634	58.250955015576	865
0	639	58.442238943382	866
0	639	58.442238943382	867
0	640	58.458225029921	868
0	640	58.458225029921	869
0	641	58.471313969332	870
0	641	58.471313969332	871
0	642	58.483269671493	872
0	642	58.483269671493	873
0	643	58.49166966576	874
0	643	58.49166966576	875
0	645	58.750527360119	875
0	645	58.750527360119	876
0	646	58.766343278858	877
0	646	58.766343278858	878
0	647	58.780430075781	879
0	647	58.780430075781	880
0	649	58.893671805325	881
0	649	58.893671805325	882
0	651	58.955779886939	883
0	651	58.955779886939	884
0	652	58.960764838753	885
0	652	58.960764838753	886
0	654	59.03635003623	887
0	654	59.03635003623	888
0	655	59.053967007373	888
0	655	59.053967007373	889
0	656	59.079748135333	890
0	656	59.079748135333	891
0	658	59.112792446781	892
0	658	59.112792446781	893
0	659	59.112976249584	894
0	659	59.112976249584	895
0	660	59.157487389698	896
0	660	59.157487389698	897
0	661	59.172151210054	898
0	661	59.172151210054	899
0	663	59.299241534887	900
0	663	59.299241534887	901
0	664	59.317047025601	902
0	664	59.317047025601	903
0	665	59.383564139532	904
0	665	59.383564139532	905
0	666	59.476572031011	906
0	666	59.476572031011	907
0	667	59.494574441975	908
0	667	59.494574441975	909
0	668	59.518682268412	910
0	668	59.518682268412	911
0	669	59.786118252633	912
0	669	59.786118252633	913
0	670	59.803964316992	914
0	670	59.803964316992	915
0	671	59.84628124019	916
0	671	59.84628124019	917
0	672	59.883514971056	918
0	672	59.883514971056	919
0	673	59.908717271309	920
0	673	59.908717271309	921
0	676	60.019051554429	922
0	676	60.019051554429	923
0	677	60.019681687601	924
0	677	60.019681687601	925
0	678	60.084759528438	926
0	678	60.084759528438	927
0	679	60.125928301666	928
0	679	60.125928301666	929
0	680	60.169175294736	930
0	680	60.169175294736	931
0	681	60.195684138889	932
0	681	60.195684138889	933
0	682	60.222756652694	934
0	682	60.222756652694	935
0	686	60.37762169806	936
0	686	60.37762169806	937
0	687	60.395429713932	938
0	687	60.395429713932	939
0	688	60.406305992093	940
0	688	60.406305992093	941
0	689	60.422152522759	942
0	689	60.422152522759	943
0	691	60.520483952124	944
0	691	60.520483952124	945
0	692	60.5213720878	946
0	692	60.5213720878	947
0	693	60.563493063863	948
0	693	60.563493063863	949
0	694	60.653928065842	950
0	694	60.653928065842	951
0	695	60.665340675099	952
0	695	60.665340675099	953
0	696	60.780186113955	954
0	696	60.780186113955	955
0	697	60.793998585483	956
0	697	60.793998585483	957
0	698	60.908813213601	958
0	698	60.908813213601	959
0	699	60.909960797975	960
0	699	60.909960797975	961
0	700	60.931738770703	962
0	700	60.931738770703	963
0	701	60.938014016916	964
0	701	60.938014016916	965
0	703	60.97641428122	966
0	703	60.97641428122	967
0	704	60.996571848025	968
0	704	60.996571848025	969
0	705	61.036519300696	970
0	705	61.036519300696	971
0	707	61.170150633951	972
0	707	61.170150633951	973
0	708	61.190828710419	973
0	708	61.190828710419	974
0	709	61.208206293095	975
0	709	61.208206293095	976
0	711	61.339627768421	977
0	711	61.339627768421	978
0	712	61.406468136285	979
0	712	61.406468136285	980
0	713	61.479887376686	981
0	713	61.479887376686	982
0	714	61.497429679217	983
0	714	61.497429679217	984
0	715	61.534505957639	985
0	715	61.534505957639	986
0	716	61.597558185791	987
0	716	61.597558185791	988
0	717	61.617518948891	989
0	717	61.617518948891	990
0	718	61.650796756894	991
0	718	61.650796756894	992
0	722	61.739112219971	993
0	722	61.739112219971	994
0	724	61.797884472607	995
0	724	61.797884472607	996
0	725	61.93119128938	997
0	725	61.93119128938	998
0	727	61.956296463701	999
0	727	61.956296463701	1000
0	728	61.964634284883	1001
0	728	61.964634284883	1002
0	732	62.037624287062	1003
0	732	62.037624287062	1004
0	734	62.04379433948	1005
0	734	62.04379433948	1006
0	735	62.070584607581	1007
0	735	62.070584607581	1008
0	736	62.150051659635	1009
0	736	62.150051659635	1010
0	737	62.214555069506	1011
0	737	62.214555069506	1012
0	738	62.214560641974	1013
0	738	62.214560641974	1014
0	739	62.299035500327	1015
0	739	62.299035500327	1016
0	740	62.326527655448	1017
0	740	62.326527655448	1018
0	741	62.331683081562	1019
0	741	62.331683081562	1020
0	743	62.430955928101	1021
0	743	62.430955928101	1022
0	744	62.446698199303	1023
0	744	62.446698199303	1024
0	745	62.458180084729	1025
0	745	62.458180084729	1026
0	746	62.51653397949	1027
0	746	62.51653397949	1028
0	747	62.59184749488	1029
0	747	62.59184749488	1030
0	748	62.655634176272	1031
0	748	62.655634176272	1032
0	749	62.721563422869	1033
0	749	62.721563422869	1034
0	750	62.788187785443	1035
0	750	62.788187785443	1036
0	752	62.943886956056	1037
0	752	62.943886956056	1038
0	753	62.945763697051	1039
0	753	62.945763697051	1040
0	754	62.969067509122	1041
0	754	62.969067509122	1042
0	755	62.993605869638	1043
0	755	62.993605869638	1044
0	756	62.997800327294	1045
0	756	62.997800327294	1046
0	757	63.026095436624	1047
0	757	63.026095436624	1048
0	760	63.139976678218	1049
0	760	63.139976678218	1050
0	761	63.153356828128	1051
0	761	63.153356828128	1052
0	762	63.205868111837	1053
0	762	63.205868111837	1054
0	764	63.418304817627	1055
0	764	63.418304817627	1056
0	765	63.436288594699	1057
0	765	63.436288594699	1058
0	766	63.495229969083	1059
0	766	63.495229969083	1060
0	767	63.530348328448	1061
0	767	63.530348328448	1062
0	769	63.583819728073	1063
0	769	63.583819728073	1064
0	770	63.598348124233	1065
0	770	63.598348124233	1066
0	771	63.615866849186	1067
0	771	63.615866849186	1068
0	772	63.622500371125	1069
0	772	63.622500371125	1070
0	773	63.658225841625	1071
0	773	63.658225841625	1072
0	775	63.66803091841	1073
0	775	63.66803091841	1074
0	776	63.706906697676	1075
0	776	63.706906697676	1076
0	777	63.74072148916	1077
0	777	63.74072148916	1078
0	779	63.935716530118	1079
0	779	63.935716530118	1080
0	780	63.959183474859	1081
0	780	63.959183474859	1082
0	781	64.010350406593	1083
0	781	64.010350406593	1084
0	782	64.058475544729	1085
0	782	64.058475544729	1086
0	783	64.065197776705	1087
0	783	64.065197776705	1088
0	784	64.097123346428	1089
0	784	64.097123346428	1090
0	785	64.226232508255	1091
0	785	64.226232508255	1092