version 3
run General-2-20231017-23:02:20-11995
attr configname General
attr datetime 20231017-23:02:20
attr datetimef 20231017-230220
attr experiment General
attr inifile omnetpp.ini
attr iterationvars ""
attr iterationvarsd ""
attr iterationvarsf ""
attr measurement ""
attr network Reliability
attr processid 11995
attr repetition 2
attr replication #2
attr resultdir results
attr runnumber 2
attr seedset 2
config network Reliability
config Reliability.node[*].transmissionTime "uniform(1s, 2s)"
config Reliability.node[*].delayTime "uniform(0.01s, 0.2s)"
config Reliability.node[*].lossProbability 0.7
config record-eventlog true
config sim-time-limit 240s
config repeat 5

vector 0 Reliability.node[0] txVector ETV
vector 1 Reliability.node[1] txVector ETV
vector 2 Reliability.node[1] rxVector ETV
vector 3 Reliability.node[2] txVector ETV
vector 4 Reliability.node[2] rxVector ETV
vector 5 Reliability.node[4] txVector ETV
vector 6 Reliability.node[4] rxVector ETV
vector 7 Reliability.node[5] rxVector ETV
vector 8 Reliability.node[0] rxVector ETV
vector 9 Reliability.node[3] txVector ETV
vector 10 Reliability.node[3] rxVector ETV
0	1	0.092839031499	1
0	1	0.092839031499	1
0	1	0.092839031499	1
0	6	1.118765259413	2
0	6	1.118765259413	2
0	6	1.118765259413	2
0	8	2.273191934936	3
0	8	2.273191934936	3
0	8	2.273191934936	3
0	10	3.892462905282	4
0	10	3.892462905282	4
0	10	3.892462905282	4
0	12	5.377638820112	5
0	12	5.377638820112	5
0	12	5.377638820112	5
0	17	6.998772653304	6
0	17	6.998772653304	6
0	17	6.998772653304	6
0	27	8.718526884234	7
0	27	8.718526884234	7
0	27	8.718526884234	7
0	29	9.900253921533	8
0	29	9.900253921533	8
0	29	9.900253921533	8
0	31	11.496999229556	9
0	31	11.496999229556	9
0	31	11.496999229556	9
0	33	12.718834396703	10
0	33	12.718834396703	10
0	33	12.718834396703	10
0	35	13.939140602965	11
0	35	13.939140602965	11
0	35	13.939140602965	11
0	37	15.106963917399	12
0	37	15.106963917399	12
0	37	15.106963917399	12
0	39	16.308707144363	13
0	39	16.308707144363	13
0	39	16.308707144363	13
0	41	17.962973326463	14
0	41	17.962973326463	14
0	41	17.962973326463	14
0	43	19.468210043404	15
0	43	19.468210043404	15
0	43	19.468210043404	15
0	48	21.081239737123	16
0	48	21.081239737123	16
0	48	21.081239737123	16
0	50	23.04579081947	17
0	50	23.04579081947	17
0	50	23.04579081947	17
0	55	24.263060739283	18
0	55	24.263060739283	18
0	55	24.263060739283	18
0	57	25.699808001537	19
0	57	25.699808001537	19
0	57	25.699808001537	19
0	59	27.167650493113	20
0	59	27.167650493113	20
0	59	27.167650493113	20
0	66	29.121392715508	21
0	66	29.121392715508	21
0	66	29.121392715508	21
0	68	30.868024128508	22
0	68	30.868024128508	22
0	68	30.868024128508	22
0	78	31.935168496818	23
0	78	31.935168496818	23
0	78	31.935168496818	23
0	83	33.291792777153	24
0	83	33.291792777153	24
0	83	33.291792777153	24
0	85	35.176264376398	25
0	85	35.176264376398	25
0	85	35.176264376398	25
0	87	36.436009127898	26
0	87	36.436009127898	26
0	87	36.436009127898	26
0	94	37.829942419212	27
0	94	37.829942419212	27
0	94	37.829942419212	27
0	104	39.412627308182	28
0	104	39.412627308182	28
0	104	39.412627308182	28
0	106	40.525403523836	29
0	106	40.525403523836	29
0	106	40.525403523836	29
0	108	42.487863099454	30
0	108	42.487863099454	30
0	108	42.487863099454	30
0	115	44.226262854198	31
0	115	44.226262854198	31
0	115	44.226262854198	31
0	120	45.758407295002	32
0	120	45.758407295002	32
0	120	45.758407295002	32
0	122	47.50718517324	33
0	122	47.50718517324	33
0	122	47.50718517324	33
0	124	48.613757706965	34
0	124	48.613757706965	34
0	124	48.613757706965	34
0	126	49.834595623911	35
0	126	49.834595623911	35
0	126	49.834595623911	35
0	128	51.64180676478	36
0	128	51.64180676478	36
0	128	51.64180676478	36
0	130	52.988044677321	37
0	130	52.988044677321	37
0	130	52.988044677321	37
0	135	54.883190416051	38
0	135	54.883190416051	38
0	135	54.883190416051	38
0	142	56.70944024275	39
0	142	56.70944024275	39
0	142	56.70944024275	39
0	144	57.986879457971	40
0	144	57.986879457971	40
0	144	57.986879457971	40
0	146	59.173506601965	41
0	146	59.173506601965	41
0	146	59.173506601965	41
0	148	61.025795562211	42
0	148	61.025795562211	42
0	148	61.025795562211	42
0	150	62.036045603472	43
0	150	62.036045603472	43
0	150	62.036045603472	43
0	152	63.128941869381	44
0	152	63.128941869381	44
0	152	63.128941869381	44
0	154	64.316228413507	45
0	154	64.316228413507	45
0	154	64.316228413507	45
0	156	66.196218764661	46
0	156	66.196218764661	46
0	156	66.196218764661	46
0	158	67.411143145543	47
0	158	67.411143145543	47
0	158	67.411143145543	47
0	160	68.684981015064	48
0	160	68.684981015064	48
0	160	68.684981015064	48
0	165	70.234477833864	49
0	165	70.234477833864	49
0	165	70.234477833864	49
0	167	71.56957249811	50
0	167	71.56957249811	50
0	167	71.56957249811	50
0	169	72.731039064956	51
0	169	72.731039064956	51
0	169	72.731039064956	51
0	171	74.567556716289	52
0	171	74.567556716289	52
0	171	74.567556716289	52
0	173	76.30931176061	53
0	173	76.30931176061	53
0	173	76.30931176061	53
0	180	77.932584093671	54
0	180	77.932584093671	54
0	180	77.932584093671	54
0	182	79.289719028419	55
0	182	79.289719028419	55
0	182	79.289719028419	55
0	184	81.200374545317	56
0	184	81.200374545317	56
0	184	81.200374545317	56
0	186	82.266038215507	57
0	186	82.266038215507	57
0	186	82.266038215507	57
0	188	83.624278523281	58
0	188	83.624278523281	58
0	188	83.624278523281	58
0	190	85.292705572696	59
0	190	85.292705572696	59
0	190	85.292705572696	59
0	195	86.323073824655	60
0	195	86.323073824655	60
0	195	86.323073824655	60
0	200	87.938328395152	61
0	200	87.938328395152	61
0	200	87.938328395152	61
0	202	89.423382161438	62
0	202	89.423382161438	62
0	202	89.423382161438	62
0	209	90.930999644121	63
0	209	90.930999644121	63
0	209	90.930999644121	63
0	214	92.304040699053	64
0	214	92.304040699053	64
0	214	92.304040699053	64
0	216	93.78549885682	65
0	216	93.78549885682	65
0	216	93.78549885682	65
0	221	95.671326258007	66
0	221	95.671326258007	66
0	221	95.671326258007	66
0	223	97.387073344804	67
0	223	97.387073344804	67
0	223	97.387073344804	67
0	225	98.551940487252	68
0	225	98.551940487252	68
0	225	98.551940487252	68
0	227	100.492390983059	69
0	227	100.492390983059	69
0	227	100.492390983059	69
0	229	101.84656340561	70
0	229	101.84656340561	70
0	229	101.84656340561	70
0	231	103.129822152687	71
0	231	103.129822152687	71
0	231	103.129822152687	71
0	233	104.197557391852	72
0	233	104.197557391852	72
0	233	104.197557391852	72
0	235	106.123458988985	73
0	235	106.123458988985	73
0	235	106.123458988985	73
0	240	107.893195957199	74
0	240	107.893195957199	74
0	240	107.893195957199	74
0	245	109.112016740043	75
0	245	109.112016740043	75
0	245	109.112016740043	75
0	247	110.543230643982	76
0	247	110.543230643982	76
0	247	110.543230643982	76
0	249	112.385563687907	77
0	249	112.385563687907	77
0	249	112.385563687907	77
0	254	114.078182557618	78
0	254	114.078182557618	78
0	254	114.078182557618	78
0	256	115.286685052115	79
0	256	115.286685052115	79
0	256	115.286685052115	79
0	261	116.512981211554	80
0	261	116.512981211554	80
0	261	116.512981211554	80
0	263	118.346142454559	81
0	263	118.346142454559	81
0	263	118.346142454559	81
0	268	120.103147094158	82
0	268	120.103147094158	82
0	268	120.103147094158	82
0	277	121.538230743512	83
0	277	121.538230743512	83
0	277	121.538230743512	83
0	279	122.688717208124	84
0	279	122.688717208124	84
0	279	122.688717208124	84
0	281	124.625498282743	85
0	281	124.625498282743	85
0	281	124.625498282743	85
0	283	125.638735316481	86
0	283	125.638735316481	86
0	283	125.638735316481	86
0	285	127.493854983963	87
0	285	127.493854983963	87
0	285	127.493854983963	87
0	287	128.919494228458	88
0	287	128.919494228458	88
0	287	128.919494228458	88
0	289	130.701153657652	89
0	289	130.701153657652	89
0	289	130.701153657652	89
0	291	132.446191918125	90
0	291	132.446191918125	90
0	291	132.446191918125	90
0	293	134.138591161018	91
0	293	134.138591161018	91
0	293	134.138591161018	91
0	295	135.779707722852	92
0	295	135.779707722852	92
0	295	135.779707722852	92
0	302	137.569951521253	93
0	302	137.569951521253	93
0	302	137.569951521253	93
0	304	138.956534981981	94
0	304	138.956534981981	94
0	304	138.956534981981	94
0	309	140.132259171477	95
0	309	140.132259171477	95
0	309	140.132259171477	95
0	311	141.850193988553	96
0	311	141.850193988553	96
0	311	141.850193988553	96
0	313	143.565924578135	97
0	313	143.565924578135	97
0	313	143.565924578135	97
0	315	144.929219224046	98
0	315	144.929219224046	98
0	315	144.929219224046	98
0	317	146.64254078667	99
0	317	146.64254078667	99
0	317	146.64254078667	99
0	324	147.702848389534	100
0	324	147.702848389534	100
0	324	147.702848389534	100
0	329	149.217250445647	101
0	329	149.217250445647	101
0	329	149.217250445647	101
0	339	150.687945446953	102
0	339	150.687945446953	102
0	339	150.687945446953	102
0	341	151.895987063901	103
0	341	151.895987063901	103
0	341	151.895987063901	103
0	343	153.249200959712	104
0	343	153.249200959712	104
0	343	153.249200959712	104
0	348	154.681334060406	105
0	348	154.681334060406	105
0	348	154.681334060406	105
0	350	156.170635354262	106
0	350	156.170635354262	106
0	350	156.170635354262	106
0	352	157.861495403363	107
0	352	157.861495403363	107
0	352	157.861495403363	107
0	354	159.29816528901	108
0	354	159.29816528901	108
0	354	159.29816528901	108
0	359	160.429444511677	109
0	359	160.429444511677	109
0	359	160.429444511677	109
0	361	161.626408834965	110
0	361	161.626408834965	110
0	361	161.626408834965	110
0	363	163.042722023348	111
0	363	163.042722023348	111
0	363	163.042722023348	111
0	365	164.771722827363	112
0	365	164.771722827363	112
0	365	164.771722827363	112
0	367	165.916143291188	113
0	367	165.916143291188	113
0	367	165.916143291188	113
0	369	167.797378592217	114
0	369	167.797378592217	114
0	369	167.797378592217	114
0	371	168.827160341223	115
0	371	168.827160341223	115
0	371	168.827160341223	115
0	373	170.794273473113	116
0	373	170.794273473113	116
0	373	170.794273473113	116
0	375	172.700196068292	117
0	375	172.700196068292	117
0	375	172.700196068292	117
0	377	174.078198479279	118
0	377	174.078198479279	118
0	377	174.078198479279	118
0	389	176.037904474675	119
0	389	176.037904474675	119
0	389	176.037904474675	119
0	391	177.786869511265	120
0	391	177.786869511265	120
0	391	177.786869511265	120
0	393	179.13184947453	121
0	393	179.13184947453	121
0	393	179.13184947453	121
0	395	180.385096310894	122
0	395	180.385096310894	122
0	395	180.385096310894	122
0	400	181.483056704071	123
0	400	181.483056704071	123
0	400	181.483056704071	123
0	402	182.821825339947	124
0	402	182.821825339947	124
0	402	182.821825339947	124
0	404	184.236493598692	125
0	404	184.236493598692	125
0	404	184.236493598692	125
0	406	185.885272211185	126
0	406	185.885272211185	126
0	406	185.885272211185	126
0	418	187.096869790716	127
0	418	187.096869790716	127
0	418	187.096869790716	127
0	420	189.026660215132	128
0	420	189.026660215132	128
0	420	189.026660215132	128
0	425	190.028542872774	129
0	425	190.028542872774	129
0	425	190.028542872774	129
0	430	191.966455987445	130
0	430	191.966455987445	130
0	430	191.966455987445	130
0	432	193.641078762733	131
0	432	193.641078762733	131
0	432	193.641078762733	131
0	434	194.947443436621	132
0	434	194.947443436621	132
0	434	194.947443436621	132
0	436	195.978745442372	133
0	436	195.978745442372	133
0	436	195.978745442372	133
0	448	197.764543302845	134
0	448	197.764543302845	134
0	448	197.764543302845	134
0	450	199.477735260291	135
0	450	199.477735260291	135
0	450	199.477735260291	135
0	452	200.874541343445	136
0	452	200.874541343445	136
0	452	200.874541343445	136
0	454	202.094831231538	137
0	454	202.094831231538	137
0	454	202.094831231538	137
0	461	203.584284703968	138
0	461	203.584284703968	138
0	461	203.584284703968	138
0	468	205.387460573366	139
0	468	205.387460573366	139
0	468	205.387460573366	139
0	473	206.601401617773	140
0	473	206.601401617773	140
0	473	206.601401617773	140
0	475	207.821703272196	141
0	475	207.821703272196	141
0	475	207.821703272196	141
0	477	209.092160909227	142
0	477	209.092160909227	142
0	477	209.092160909227	142
0	479	210.587522908137	143
0	479	210.587522908137	143
0	479	210.587522908137	143
0	481	212.332398061198	144
0	481	212.332398061198	144
0	481	212.332398061198	144
0	483	214.118626577337	145
0	483	214.118626577337	145
0	483	214.118626577337	145
0	485	215.253830326744	146
0	485	215.253830326744	146
0	485	215.253830326744	146
0	487	217.060165538243	147
0	487	217.060165538243	147
0	487	217.060165538243	147
0	489	219.05948245388	148
0	489	219.05948245388	148
0	489	219.05948245388	148
0	491	220.807667481969	149
0	491	220.807667481969	149
0	491	220.807667481969	149
0	493	221.988435811154	150
0	493	221.988435811154	150
0	493	221.988435811154	150
0	495	223.560444629309	151
0	495	223.560444629309	151
0	495	223.560444629309	151
0	500	224.96263904383	152
0	500	224.96263904383	152
0	500	224.96263904383	152
0	502	226.874657820934	153
0	502	226.874657820934	153
0	502	226.874657820934	153
0	509	228.854821391893	154
0	509	228.854821391893	154
0	509	228.854821391893	154
0	516	230.818264425989	155
0	516	230.818264425989	155
0	516	230.818264425989	155
0	521	231.981687128568	156
0	521	231.981687128568	156
0	521	231.981687128568	156
0	523	233.528076103447	157
0	523	233.528076103447	157
0	523	233.528076103447	157
0	525	234.905799091352	158
0	525	234.905799091352	158
0	525	234.905799091352	158
0	527	236.585125109671	159
0	527	236.585125109671	159
0	527	236.585125109671	159
0	529	238.443242446078	160
0	529	238.443242446078	160
0	529	238.443242446078	160
0	531	239.990056370875	161
0	531	239.990056370875	161
0	531	239.990056370875	161
1	2	0.238004626979	1
1	2	0.238004626979	2
1	2	0.238004626979	3
1	13	5.607858988932	4
1	13	5.607858988932	5
1	13	5.607858988932	6
1	18	7.143816227245	7
1	18	7.143816227245	8
1	18	7.143816227245	9
1	44	19.651719647001	10
1	44	19.651719647001	11
1	44	19.651719647001	12
1	51	23.250792408625	13
1	51	23.250792408625	14
1	51	23.250792408625	15
1	60	27.329743411268	16
1	60	27.329743411268	17
1	60	27.329743411268	18
1	69	31.060016304802	19
1	69	31.060016304802	20
1	69	31.060016304802	21
1	79	32.10651459806	22
1	79	32.10651459806	23
1	79	32.10651459806	24
1	88	36.619518205861	25
1	88	36.619518205861	26
1	88	36.619518205861	27
1	95	38.008727626484	28
1	95	38.008727626484	29
1	95	38.008727626484	30
1	109	42.720795802362	31
1	109	42.720795802362	32
1	109	42.720795802362	33
1	116	44.368653509293	34
1	116	44.368653509293	35
1	116	44.368653509293	36
1	131	53.148162597325	37
1	131	53.148162597325	38
1	131	53.148162597325	39
1	136	55.00079255071	40
1	136	55.00079255071	41
1	136	55.00079255071	42
1	161	68.799994002839	43
1	161	68.799994002839	44
1	161	68.799994002839	45
1	174	76.543385657419	46
1	174	76.543385657419	47
1	174	76.543385657419	48
1	191	85.440330724385	49
1	191	85.440330724385	50
1	191	85.440330724385	51
1	196	86.544636922918	52
1	196	86.544636922918	53
1	196	86.544636922918	54
1	203	89.674715947156	55
1	203	89.674715947156	56
1	203	89.674715947156	57
1	210	91.18874134741	58
1	210	91.18874134741	59
1	210	91.18874134741	60
1	217	94.037689916547	61
1	217	94.037689916547	62
1	217	94.037689916547	63
1	236	106.341811088589	64
1	236	106.341811088589	65
1	236	106.341811088589	66
1	241	108.186504281603	67
1	241	108.186504281603	68
1	241	108.186504281603	69
1	250	112.671534331486	70
1	250	112.671534331486	71
1	250	112.671534331486	72
1	257	115.561487545005	73
1	257	115.561487545005	74
1	257	115.561487545005	75
1	264	118.495243253347	76
1	264	118.495243253347	77
1	264	118.495243253347	78
1	269	120.377721340101	79
1	269	120.377721340101	80
1	269	120.377721340101	81
1	296	135.932097219743	82
1	296	135.932097219743	83
1	296	135.932097219743	84
1	305	139.206125190602	85
1	305	139.206125190602	86
1	305	139.206125190602	87
1	318	146.920740885519	88
1	318	146.920740885519	89
1	318	146.920740885519	90
1	325	147.854250780601	91
1	325	147.854250780601	92
1	325	147.854250780601	93
1	330	149.515134243729	94
1	330	149.515134243729	95
1	330	149.515134243729	96
1	344	153.390508898044	97
1	344	153.390508898044	98
1	344	153.390508898044	99
1	355	159.411025954553	100
1	355	159.411025954553	101
1	355	159.411025954553	102
1	378	174.252298454412	103
1	378	174.252298454412	104
1	378	174.252298454412	105
1	396	180.649143219625	106
1	396	180.649143219625	107
1	396	180.649143219625	108
1	407	186.033720737926	109
1	407	186.033720737926	110
1	407	186.033720737926	111
1	421	189.297818482927	112
1	421	189.297818482927	113
1	421	189.297818482927	114
1	426	190.240831088768	115
1	426	190.240831088768	116
1	426	190.240831088768	117
1	437	196.268271615274	118
1	437	196.268271615274	119
1	437	196.268271615274	120
1	455	202.267036126313	121
1	455	202.267036126313	122
1	455	202.267036126313	123
1	462	203.795885872297	124
1	462	203.795885872297	125
1	462	203.795885872297	126
1	469	205.552498916289	127
1	469	205.552498916289	128
1	469	205.552498916289	129
1	496	223.741204527898	130
1	496	223.741204527898	131
1	496	223.741204527898	132
1	503	227.076627999028	133
1	503	227.076627999028	134
1	503	227.076627999028	135
1	510	229.03255825572	136
1	510	229.03255825572	137
1	510	229.03255825572	138
1	517	231.031494968115	139
1	517	231.031494968115	140
1	517	231.031494968115	141
2	2	0.238004626979	1
2	13	5.607858988932	2
2	18	7.143816227245	3
2	44	19.651719647001	4
2	51	23.250792408625	5
2	60	27.329743411268	6
2	69	31.060016304802	7
2	79	32.10651459806	8
2	88	36.619518205861	9
2	95	38.008727626484	10
2	109	42.720795802362	11
2	114	43.215781673567	12
2	116	44.368653509293	13
2	131	53.148162597325	14
2	136	55.00079255071	15
2	161	68.799994002839	16
2	174	76.543385657419	17
2	191	85.440330724385	18
2	196	86.544636922918	19
2	203	89.674715947156	20
2	207	89.934017120761	21
2	210	91.18874134741	22
2	217	94.037689916547	23
2	236	106.341811088589	24
2	241	108.186504281603	25
2	250	112.671534331486	26
2	257	115.561487545005	27
2	264	118.495243253347	28
2	269	120.377721340101	29
2	296	135.932097219743	30
2	305	139.206125190602	31
2	318	146.920740885519	32
2	322	147.255940277345	33
2	325	147.854250780601	34
2	330	149.515134243729	35
2	344	153.390508898044	36
2	355	159.411025954553	37
2	378	174.252298454412	38
2	396	180.649143219625	39
2	407	186.033720737926	40
2	421	189.297818482927	41
2	426	190.240831088768	42
2	437	196.268271615274	43
2	455	202.267036126313	44
2	462	203.795885872297	45
2	469	205.552498916289	46
2	496	223.741204527898	47
2	503	227.076627999028	48
2	507	227.533013857308	49
2	510	229.03255825572	50
2	517	231.031494968115	51
3	21	7.416071532516	1
3	21	7.416071532516	2
3	90	36.869500147432	3
3	90	36.869500147432	4
3	112	42.983451706918	5
3	112	42.983451706918	6
3	271	120.631363811457	7
3	271	120.631363811457	8
3	298	136.128372097879	9
3	298	136.128372097879	10
3	380	174.494031881534	11
3	380	174.494031881534	12
3	410	186.298564328474	13
3	410	186.298564328474	14
3	440	196.555744881557	15
3	440	196.555744881557	16
3	465	204.027390301727	17
3	465	204.027390301727	18
3	506	227.296202834738	19
3	506	227.296202834738	20
4	21	7.416071532516	1
4	90	36.869500147432	2
4	112	42.983451706918	3
4	271	120.631363811457	4
4	298	136.128372097879	5
4	380	174.494031881534	6
4	410	186.298564328474	7
4	440	196.555744881557	8
4	465	204.027390301727	9
4	506	227.296202834738	10
5	22	7.541204171996	1
5	22	7.541204171996	2
5	22	7.541204171996	3
5	73	31.578771817114	4
5	73	31.578771817114	5
5	73	31.578771817114	6
5	100	38.528296369319	7
5	100	38.528296369319	8
5	100	38.528296369319	9
5	335	150.08583939165	10
5	335	150.08583939165	11
5	335	150.08583939165	12
5	383	174.689230439076	13
5	383	174.689230439076	14
5	383	174.689230439076	15
5	411	186.399923362077	16
5	411	186.399923362077	17
5	411	186.399923362077	18
5	441	196.62649245175	19
5	441	196.62649245175	20
5	441	196.62649245175	21
6	22	7.541204171996	1
6	73	31.578771817114	2
6	100	38.528296369319	3
6	335	150.08583939165	4
6	383	174.689230439076	5
6	411	186.399923362077	6
6	441	196.62649245175	7
7	24	7.663608607687	1
7	77	31.871231425803	2
7	103	38.742982171234	3
7	337	150.322484670495	4
7	384	174.86133607391	5
7	417	186.695466827535	6
7	447	196.858391296888	7
8	47	19.949981526418	1
8	62	27.543142960809	2
8	72	31.35884818679	3
8	80	32.225193601419	4
8	91	36.905562088075	5
8	119	44.662628718028	6
8	133	53.434699178462	7
8	199	86.835832316127	8
8	211	91.300793522733	9
8	218	94.176867394757	10
8	260	115.835082803694	11
8	270	120.529688771715	12
8	299	136.18694091683	13
8	346	153.555124907786	14
8	398	180.853521444159	15
8	463	203.963002111608	16
8	497	223.863953251873	17
9	61	27.45534144622	1
9	61	27.45534144622	2
9	71	31.354426564605	3
9	71	31.354426564605	4
9	98	38.244546010671	5
9	98	38.244546010671	6
9	137	55.144367861198	7
9	137	55.144367861198	8
9	177	76.807814228227	9
9	177	76.807814228227	10
9	204	89.792777493413	11
9	204	89.792777493413	12
9	272	120.655039531774	13
9	272	120.655039531774	14
9	320	147.12926064144	15
9	320	147.12926064144	16
9	333	149.809538316828	17
9	333	149.809538316828	18
9	386	174.90503387135	19
9	386	174.90503387135	20
9	408	186.165970693845	21
9	408	186.165970693845	22
9	439	196.497783413179	23
9	439	196.497783413179	24
9	457	202.464377282615	25
9	457	202.464377282615	26
9	513	229.283291618331	27
9	513	229.283291618331	28
10	61	27.45534144622	1
10	71	31.354426564605	2
10	98	38.244546010671	3
10	102	38.71652819305	4
10	137	55.144367861198	5
10	177	76.807814228227	6
10	204	89.792777493413	7
10	272	120.655039531774	8
10	320	147.12926064144	9
10	333	149.809538316828	10
10	386	174.90503387135	11
10	408	186.165970693845	12
10	439	196.497783413179	13
10	457	202.464377282615	14
10	513	229.283291618331	15

