version 3
run General-0-20231005-15:01:37-12533
attr configname General
attr datetime 20231005-15:01:37
attr datetimef 20231005-150137
attr experiment General
attr inifile omnetpp.ini
attr iterationvars ""
attr iterationvarsd ""
attr iterationvarsf ""
attr measurement ""
attr network Reliability
attr processid 12533
attr repetition 0
attr replication #0
attr resultdir results
attr runnumber 0
attr seedset 0
config network Reliability
config Reliability.node[*].transmissionTime "uniform(1s, 2s)"
config Reliability.node[*].delayTime "uniform(0.01s, 0.2s)"
config Reliability.node[*].lossProbability 0
config record-eventlog true
config sim-time-limit 240s

vector 0 Reliability.node[0] txVector ETV
vector 1 Reliability.node[0] rxVector ETV
vector 2 Reliability.node[1] rxVector ETV
vector 3 Reliability.node[1] txVector ETV
vector 4 Reliability.node[2] rxVector ETV
vector 5 Reliability.node[2] txVector ETV
vector 6 Reliability.node[3] rxVector ETV
vector 7 Reliability.node[3] txVector ETV
vector 8 Reliability.node[4] rxVector ETV
vector 9 Reliability.node[4] txVector ETV
vector 10 Reliability.node[5] rxVector ETV
0	0	0	1
0	1	0.114274565438	2
0	1	0.114274565438	3
0	3	0.134274565438	4
0	3	0.134274565438	4
0	13	0.236915042552	5
0	13	0.236915042552	6
0	15	0.256915042552	7
0	15	0.256915042552	7
0	18	0.25879960581	8
0	18	0.25879960581	9
0	27	0.27879960581	10
0	27	0.27879960581	10
0	37	0.305354172234	11
0	37	0.305354172234	12
0	39	0.31871973851	13
0	39	0.31871973851	14
0	40	0.325354172234	15
0	40	0.325354172234	15
0	48	0.33871973851	16
0	48	0.33871973851	16
0	61	0.416351912886	17
0	61	0.416351912886	18
0	62	0.423111663838	19
0	62	0.423111663838	20
1	1	0.114274565438	1
1	3	0.134274565438	1
1	13	0.236915042552	2
1	15	0.256915042552	2
1	18	0.25879960581	3
1	27	0.27879960581	3
1	37	0.305354172234	4
1	39	0.31871973851	5
1	40	0.325354172234	5
1	48	0.33871973851	5
1	61	0.416351912886	6
1	62	0.423111663838	7
2	2	0.124274565438	1
2	6	0.144274565438	1
2	8	0.144274565438	1
2	14	0.246915042552	2
2	19	0.266915042552	2
2	21	0.266915042552	2
2	23	0.26879960581	3
2	30	0.28879960581	3
2	32	0.28879960581	3
2	38	0.315354172234	4
2	43	0.32871973851	5
2	44	0.335354172234	5
2	46	0.335354172234	5
2	54	0.34871973851	5
2	56	0.34871973851	5
2	63	0.426351912886	6
3	2	0.124274565438	3
3	6	0.144274565438	3
3	8	0.144274565438	3
3	14	0.246915042552	6
3	19	0.266915042552	6
3	21	0.266915042552	6
3	23	0.26879960581	9
3	30	0.28879960581	9
3	32	0.28879960581	9
3	38	0.315354172234	12
3	43	0.32871973851	15
3	44	0.335354172234	15
3	46	0.335354172234	15
3	54	0.34871973851	15
3	56	0.34871973851	15
3	63	0.426351912886	18
4	4	0.134274565438	1
4	10	0.154274565438	1
4	16	0.256915042552	2
4	24	0.276915042552	2
4	28	0.27879960581	3
4	34	0.29879960581	3
4	41	0.325354172234	4
4	49	0.33871973851	5
4	51	0.345354172234	5
4	58	0.35871973851	5
5	4	0.134274565438	2
5	10	0.154274565438	2
5	16	0.256915042552	4
5	24	0.276915042552	4
5	28	0.27879960581	6
5	34	0.29879960581	6
5	41	0.325354172234	8
5	49	0.33871973851	10
5	51	0.345354172234	10
5	58	0.35871973851	10
6	5	0.134274565438	1
6	11	0.154274565438	1
6	17	0.256915042552	2
6	25	0.276915042552	2
6	29	0.27879960581	3
6	35	0.29879960581	3
6	42	0.325354172234	4
6	50	0.33871973851	5
6	52	0.345354172234	5
6	59	0.35871973851	5
7	5	0.134274565438	2
7	11	0.154274565438	2
7	17	0.256915042552	4
7	25	0.276915042552	4
7	29	0.27879960581	6
7	35	0.29879960581	6
7	42	0.325354172234	8
7	50	0.33871973851	10
7	52	0.345354172234	10
7	59	0.35871973851	10
8	7	0.144274565438	1
8	9	0.144274565438	1
8	20	0.266915042552	2
8	22	0.266915042552	2
8	31	0.28879960581	3
8	33	0.28879960581	3
8	45	0.335354172234	4
8	47	0.335354172234	4
8	55	0.34871973851	5
8	57	0.34871973851	5
9	7	0.144274565438	3
9	9	0.144274565438	3
9	20	0.266915042552	6
9	22	0.266915042552	6
9	31	0.28879960581	9
9	33	0.28879960581	9
9	45	0.335354172234	12
9	47	0.335354172234	12
9	55	0.34871973851	15
9	57	0.34871973851	15
10	12	0.154274565438	1
10	26	0.276915042552	2
10	36	0.29879960581	3
10	53	0.345354172234	4
10	60	0.35871973851	5

