version 3
run General-1-20231011-13:57:29-6857
attr configname General
attr datetime 20231011-13:57:29
attr datetimef 20231011-135729
attr experiment General
attr inifile omnetpp.ini
attr iterationvars ""
attr iterationvarsd ""
attr iterationvarsf ""
attr measurement ""
attr network Reliability
attr processid 6857
attr repetition 1
attr replication #1
attr resultdir results
attr runnumber 1
attr seedset 1
config network Reliability
config Reliability.node[*].transmissionTime "uniform(1s, 2s)"
config Reliability.node[*].delayTime "uniform(0.01s, 0.2s)"
config Reliability.node[*].lossProbability 0
config record-eventlog true
config sim-time-limit 240s
config repeat 5

vector 0 Reliability.node[0] txVector ETV
vector 1 Reliability.node[0] rxVector ETV
vector 2 Reliability.node[1] rxVector ETV
vector 3 Reliability.node[1] txVector ETV
vector 4 Reliability.node[2] rxVector ETV
vector 5 Reliability.node[2] txVector ETV
vector 6 Reliability.node[3] rxVector ETV
vector 7 Reliability.node[3] txVector ETV
vector 8 Reliability.node[4] rxVector ETV
vector 9 Reliability.node[4] txVector ETV
vector 10 Reliability.node[5] rxVector ETV
0	0	0	1
0	1	0.089234179703	2
0	1	0.089234179703	3
0	3	0.715003669819	3
0	3	0.715003669819	4
0	10	1.951092646083	5
0	10	1.951092646083	6
0	11	2.021791540903	7
0	11	2.021791540903	8
0	12	3.049179136871	9
0	12	3.049179136871	10
0	16	3.394545539839	11
0	16	3.394545539839	12
0	19	4.534932476792	13
0	19	4.534932476792	14
0	20	4.963141159272	15
0	20	4.963141159272	16
0	21	6.053085025025	17
0	21	6.053085025025	18
0	23	6.857747823117	19
0	23	6.857747823117	20
0	25	7.882688389716	21
0	25	7.882688389716	22
0	26	7.956094659516	23
0	26	7.956094659516	24
0	27	7.979701720772	24
0	27	7.979701720772	25
0	32	8.418375205878	25
0	32	8.418375205878	26
0	33	9.080239283244	27
0	33	9.080239283244	28
0	35	9.271610293421	29
0	35	9.271610293421	30
0	36	9.666202645411	31
0	36	9.666202645411	32
0	38	10.15360345747	33
0	38	10.15360345747	34
0	39	10.20765453803	35
0	39	10.20765453803	36
0	40	10.559385636472	37
0	40	10.559385636472	38
0	41	11.191002028424	39
0	41	11.191002028424	40
0	42	11.419150115081	41
0	42	11.419150115081	42
0	43	11.792043661863	43
0	43	11.792043661863	44
0	44	12.133503243211	45
0	44	12.133503243211	46
0	48	12.563373696057	46
0	48	12.563373696057	47
0	49	13.11890847664	48
0	49	13.11890847664	49
0	50	13.147537687223	50
0	50	13.147537687223	51
0	51	13.325492154738	52
0	51	13.325492154738	53
0	52	13.827903401223	54
0	52	13.827903401223	55
0	54	13.881858063925	55
0	54	13.881858063925	56
0	57	14.285012389894	57
0	57	14.285012389894	58
0	58	14.50796845462	59
0	58	14.50796845462	60
0	59	15.00203394829	61
0	59	15.00203394829	62
0	60	15.217628023285	63
0	60	15.217628023285	64
0	61	15.225580235128	65
0	61	15.225580235128	66
0	62	15.229623923141	67
0	62	15.229623923141	68
0	63	15.85686679324	69
0	63	15.85686679324	70
0	65	15.932761785702	71
0	65	15.932761785702	72
0	68	16.237249429454	73
0	68	16.237249429454	74
0	72	16.358565665173	75
0	72	16.358565665173	76
0	73	16.645719213575	77
0	73	16.645719213575	78
0	78	16.851319643033	79
0	78	16.851319643033	80
0	79	17.24011975422	81
0	79	17.24011975422	82
0	80	17.340898589824	83
0	80	17.340898589824	84
0	81	17.643818267154	85
0	81	17.643818267154	86
0	82	18.067608187531	87
0	82	18.067608187531	88
0	85	18.551967821312	88
0	85	18.551967821312	89
0	86	18.554254359031	90
0	86	18.554254359031	91
0	88	18.712594795623	92
0	88	18.712594795623	93
0	90	18.848642494592	94
0	90	18.848642494592	95
0	91	19.108129774685	96
0	91	19.108129774685	97
0	92	19.273494054691	98
0	92	19.273494054691	99
0	94	19.580465346273	100
0	94	19.580465346273	101
0	95	19.724246178283	102
0	95	19.724246178283	103
0	96	19.823071239374	104
0	96	19.823071239374	105
0	97	20.126961337232	106
0	97	20.126961337232	107
0	98	20.257160701317	107
0	98	20.257160701317	108
0	100	20.387313455342	109
0	100	20.387313455342	110
0	104	20.572622746113	111
0	104	20.572622746113	112
0	105	20.84356071254	113
0	105	20.84356071254	114
0	106	21.210931884914	115
0	106	21.210931884914	116
0	108	21.381098019356	117
0	108	21.381098019356	118
0	109	21.441637780279	119
0	109	21.441637780279	120
0	110	21.540651939342	121
0	110	21.540651939342	122
0	111	21.684973336517	123
0	111	21.684973336517	124
0	112	21.702392358915	125
0	112	21.702392358915	126
0	113	21.878834306558	127
0	113	21.878834306558	128
0	115	22.485577038114	129
0	115	22.485577038114	130
0	116	22.576527499525	131
0	116	22.576527499525	132
0	117	22.81083704218	133
0	117	22.81083704218	134
0	118	22.812771675637	135
0	118	22.812771675637	136
0	120	22.983653579367	137
0	120	22.983653579367	138
0	121	23.322348070913	139
0	121	23.322348070913	140
0	122	23.387480738804	141
0	122	23.387480738804	142
0	124	23.771855518285	143
0	124	23.771855518285	144
0	125	23.922107739368	145
0	125	23.922107739368	146
0	126	23.971922144617	147
0	126	23.971922144617	148
0	127	24.12819944754	149
0	127	24.12819944754	150
0	129	24.339100637172	151
0	129	24.339100637172	152
0	130	24.383350959358	152
0	130	24.383350959358	153
0	132	24.453815571497	154
0	132	24.453815571497	155
0	134	24.728988009965	156
0	134	24.728988009965	157
0	135	24.784500585753	158
0	135	24.784500585753	159
0	136	24.86727476266	160
0	136	24.86727476266	161
0	137	24.988644221792	162
0	137	24.988644221792	163
0	138	25.067229956246	164
0	138	25.067229956246	165
0	143	25.321633728349	166
0	143	25.321633728349	167
0	144	25.646647733947	168
0	144	25.646647733947	169
0	145	26.075232667008	170
0	145	26.075232667008	171
0	146	26.155798853835	172
0	146	26.155798853835	173
0	147	26.225993600906	174
0	147	26.225993600906	175
0	148	26.263908605023	176
0	148	26.263908605023	177
0	149	26.264886039605	178
0	149	26.264886039605	179
0	151	26.401278940379	180
0	151	26.401278940379	181
0	153	26.545297411498	182
0	153	26.545297411498	183
0	155	26.773635334929	184
0	155	26.773635334929	185
0	156	27.304513570386	186
0	156	27.304513570386	187
0	157	27.329754519503	188
0	157	27.329754519503	189
0	158	27.56538116963	190
0	158	27.56538116963	191
0	159	27.577475200757	192
0	159	27.577475200757	193
0	160	27.684439655251	194
0	160	27.684439655251	195
0	161	27.724431320389	196
0	161	27.724431320389	197
0	163	27.769570774796	198
0	163	27.769570774796	199
0	164	27.777209244962	199
0	164	27.777209244962	200
0	170	28.079674748233	201
0	170	28.079674748233	202
0	172	28.328397663309	203
0	172	28.328397663309	204
0	173	28.652467324527	205
0	173	28.652467324527	206
0	175	28.739964594196	207
0	175	28.739964594196	208
0	176	28.789634782815	209
0	176	28.789634782815	210
0	177	28.863194055041	211
0	177	28.863194055041	212
0	178	28.911669680927	213
0	178	28.911669680927	214
0	179	29.012477571671	215
0	179	29.012477571671	216
0	181	29.328799686393	217
0	181	29.328799686393	218
0	182	29.633372574278	219
0	182	29.633372574278	220
0	183	29.634482962403	221
0	183	29.634482962403	222
0	184	29.758743585548	223
0	184	29.758743585548	224
0	186	30.148770332221	225
0	186	30.148770332221	226
0	187	30.207017576316	227
0	187	30.207017576316	228
0	188	30.333462999201	229
0	188	30.333462999201	230
0	189	30.438629561465	231
0	189	30.438629561465	232
0	190	30.568810403875	233
0	190	30.568810403875	234
0	193	30.609179176701	235
0	193	30.609179176701	236
0	195	30.870791409691	237
0	195	30.870791409691	238
0	196	30.994299156449	239
0	196	30.994299156449	240
0	197	31.169554938557	241
0	197	31.169554938557	242
0	198	31.304161365309	243
0	198	31.304161365309	244
0	199	31.710229291	245
0	199	31.710229291	246
0	201	31.788676702014	247
0	201	31.788676702014	248
0	202	31.805529160927	248
0	202	31.805529160927	249
0	204	31.861545879937	250
0	204	31.861545879937	251
0	205	31.8653305733	252
0	205	31.8653305733	253
0	207	32.018150907241	254
0	207	32.018150907241	255
0	208	32.039473028134	255
0	208	32.039473028134	256
0	209	32.055905712363	257
0	209	32.055905712363	258
0	213	32.180819657625	259
0	213	32.180819657625	260
0	216	32.613362921862	261
0	216	32.613362921862	262
0	219	32.727441687926	263
0	219	32.727441687926	264
0	220	32.868302784224	265
0	220	32.868302784224	266
0	221	32.873019361335	267
0	221	32.873019361335	268
0	225	33.514625765595	269
0	225	33.514625765595	270
0	226	33.522000804661	271
0	226	33.522000804661	272
0	227	33.525662469806	273
0	227	33.525662469806	274
0	230	33.648417576044	275
0	230	33.648417576044	276
0	231	33.661097840633	277
0	231	33.661097840633	278
0	232	33.736507531333	279
0	232	33.736507531333	280
0	233	33.788346277586	281
0	233	33.788346277586	282
0	235	33.885021316211	283
0	235	33.885021316211	284
0	236	33.922030169981	285
0	236	33.922030169981	286
0	237	34.101968922016	287
0	237	34.101968922016	288
0	238	34.286510200933	289
0	238	34.286510200933	290
0	240	34.747711609246	291
0	240	34.747711609246	292
0	241	34.763536479722	293
0	241	34.763536479722	294
0	242	34.817291261007	295
0	242	34.817291261007	296
0	244	34.985460303019	297
0	244	34.985460303019	298
0	245	35.020773572846	299
0	245	35.020773572846	300
0	246	35.168763112954	301
0	246	35.168763112954	302
0	247	35.326786870406	303
0	247	35.326786870406	304
0	248	35.363747158614	305
0	248	35.363747158614	306
0	250	35.510065482348	307
0	250	35.510065482348	308
0	251	35.510132905885	309
0	251	35.510132905885	310
0	252	35.825333673802	311
0	252	35.825333673802	312
0	253	35.896751017537	313
0	253	35.896751017537	314
0	254	36.023234872313	315
0	254	36.023234872313	316
0	255	36.043752874791	317
0	255	36.043752874791	318
0	256	36.066434739855	319
0	256	36.066434739855	320
0	258	36.431606533	321
0	258	36.431606533	322
0	260	36.469011450398	323
0	260	36.469011450398	324
0	261	36.563419494275	324
0	261	36.563419494275	325
0	263	36.686347174495	326
0	263	36.686347174495	327
0	264	36.71727611603	328
0	264	36.71727611603	329
0	265	36.905306535601	330
0	265	36.905306535601	331
0	266	36.922969585046	332
0	266	36.922969585046	333
0	267	37.036558836091	334
0	267	37.036558836091	335
0	268	37.074152567501	336
0	268	37.074152567501	337
0	272	37.283484552118	338
0	272	37.283484552118	339
0	276	37.502892049845	340
0	276	37.502892049845	341
0	278	37.592099741346	341
0	278	37.592099741346	342
0	280	37.60051431896	343
0	280	37.60051431896	344
0	281	37.620243329316	345
0	281	37.620243329316	346
0	282	37.767325720247	347
0	282	37.767325720247	348
0	283	37.792573176789	349
0	283	37.792573176789	350
0	285	37.917750877224	351
0	285	37.917750877224	352
0	286	38.277826896014	353
0	286	38.277826896014	354
0	288	38.333890220707	355
0	288	38.333890220707	356
0	289	38.413822775535	357
0	289	38.413822775535	358
0	290	38.436519586052	359
0	290	38.436519586052	360
0	291	38.458763158859	361
0	291	38.458763158859	362
0	292	38.503008641132	363
0	292	38.503008641132	364
0	293	38.647949706059	365
0	293	38.647949706059	366
0	296	38.853627480189	366
0	296	38.853627480189	367
0	298	38.961789031213	368
0	298	38.961789031213	369
0	299	38.967893532129	370
0	299	38.967893532129	371
0	300	39.097825962131	372
0	300	39.097825962131	373
0	301	39.155153509192	374
0	301	39.155153509192	375
0	302	39.25403009401	376
0	302	39.25403009401	377
0	305	39.558784556574	378
0	305	39.558784556574	379
0	306	39.735519266117	380
0	306	39.735519266117	381
0	308	39.797537056766	382
0	308	39.797537056766	383
0	309	39.872406588696	384
0	309	39.872406588696	385
0	310	39.890144068577	386
0	310	39.890144068577	387
0	311	39.904323054787	388
0	311	39.904323054787	389
0	312	40.013909367004	390
0	312	40.013909367004	391
0	313	40.09353490884	392
0	313	40.09353490884	393
0	314	40.100354525721	394
0	314	40.100354525721	395
0	315	40.213624637786	396
0	315	40.213624637786	397
0	317	40.534714885515	398
0	317	40.534714885515	399
0	318	40.615478786805	400
0	318	40.615478786805	401
0	319	40.693780793771	402
0	319	40.693780793771	403
0	320	40.716514622093	404
0	320	40.716514622093	405
0	321	40.785942063213	406
0	321	40.785942063213	407
0	325	40.845078049083	408
0	325	40.845078049083	409
0	328	41.040808097633	409
0	328	41.040808097633	410
0	331	41.133366415135	411
0	331	41.133366415135	412
0	332	41.136955901111	413
0	332	41.136955901111	414
0	336	41.212883860044	414
0	336	41.212883860044	415
0	337	41.29101779807	416
0	337	41.29101779807	417
0	338	41.364652003855	418
0	338	41.364652003855	419
0	339	41.508659510212	420
0	339	41.508659510212	421
0	340	41.543382028893	422
0	340	41.543382028893	423
0	341	41.573323133763	424
0	341	41.573323133763	425
0	342	41.761351210995	426
0	342	41.761351210995	427
0	344	41.799203296637	428
0	344	41.799203296637	429
0	345	41.968045174727	430
0	345	41.968045174727	431
0	346	42.060337436581	432
0	346	42.060337436581	433
0	347	42.068368233501	434
0	347	42.068368233501	435
0	348	42.171067856108	436
0	348	42.171067856108	437
0	349	42.387794119704	438
0	349	42.387794119704	439
0	350	42.466805679349	440
0	350	42.466805679349	441
0	351	42.526643226339	441
0	351	42.526643226339	442
0	355	42.584177624838	443
0	355	42.584177624838	444
0	356	42.59932464495	445
0	356	42.59932464495	446
0	357	42.630864241004	447
0	357	42.630864241004	448
0	358	42.713711838067	449
0	358	42.713711838067	450
0	359	42.724828541291	451
0	359	42.724828541291	452
0	361	42.929733222013	453
0	361	42.929733222013	454
0	362	42.936117087024	455
0	362	42.936117087024	456
0	363	42.966017115142	457
0	363	42.966017115142	458
0	366	43.149564770786	459
0	366	43.149564770786	460
0	367	43.177517281907	461
0	367	43.177517281907	462
0	368	43.208981955186	463
0	368	43.208981955186	464
0	369	43.417355828912	465
0	369	43.417355828912	466
0	371	43.44653804353	467
0	371	43.44653804353	468
0	373	43.669921705849	469
0	373	43.669921705849	470
0	374	43.704696582115	471
0	374	43.704696582115	472
0	375	43.724441339338	473
0	375	43.724441339338	474
0	376	43.782142898363	475
0	376	43.782142898363	476
0	378	43.939609204382	477
0	378	43.939609204382	478
0	379	44.051896681243	479
0	379	44.051896681243	480
0	380	44.100263373938	481
0	380	44.100263373938	482
0	381	44.226246593694	483
0	381	44.226246593694	484
0	382	44.245444085074	485
0	382	44.245444085074	486
0	383	44.345525337279	487
0	383	44.345525337279	488
0	384	44.34664469398	489
0	384	44.34664469398	490
0	385	44.485740208704	491
0	385	44.485740208704	492
0	386	44.529255587368	493
0	386	44.529255587368	494
0	387	44.590824194697	495
0	387	44.590824194697	496
0	388	44.617305348456	497
0	388	44.617305348456	498
0	389	44.666772272759	499
0	389	44.666772272759	500
0	390	44.742512296263	501
0	390	44.742512296263	502
0	391	44.760354928438	503
0	391	44.760354928438	504
0	392	44.829519127912	505
0	392	44.829519127912	506
0	393	44.879655978214	507
0	393	44.879655978214	508
0	395	44.923195979908	509
0	395	44.923195979908	510
0	398	45.02404124299	510
0	398	45.02404124299	511
0	400	45.451313303778	512
0	400	45.451313303778	513
0	401	45.45599189989	514
0	401	45.45599189989	515
0	403	45.802520926306	516
0	403	45.802520926306	517
0	404	45.823218440029	518
0	404	45.823218440029	519
0	406	45.861885391341	520
0	406	45.861885391341	521
0	407	45.86351869454	521
0	407	45.86351869454	522
0	408	45.8655665734	523
0	408	45.8655665734	524
0	410	45.91305481753	525
0	410	45.91305481753	526
0	412	45.989886419511	527
0	412	45.989886419511	528
0	414	46.075254683627	529
0	414	46.075254683627	530
0	415	46.076439613427	531
0	415	46.076439613427	532
0	416	46.151844162487	533
0	416	46.151844162487	534
0	417	46.169258724004	535
0	417	46.169258724004	536
0	418	46.227302257293	537
0	418	46.227302257293	538
0	419	46.264522613704	539
0	419	46.264522613704	540
0	420	46.290635344183	541
0	420	46.290635344183	542
0	421	46.345058017815	543
0	421	46.345058017815	544
0	422	46.616183300734	545
0	422	46.616183300734	546
0	423	46.665425443783	547
0	423	46.665425443783	548
0	424	46.72869076749	549
0	424	46.72869076749	550
0	425	46.730894389447	551
0	425	46.730894389447	552
0	428	46.913441294534	553
0	428	46.913441294534	554
0	429	47.000522225955	555
0	429	47.000522225955	556
0	430	47.018155922078	557
0	430	47.018155922078	558
0	431	47.069511050524	559
0	431	47.069511050524	560
0	432	47.235088331171	561
0	432	47.235088331171	562
0	434	47.337377729296	562
0	434	47.337377729296	563
0	435	47.383260620354	564
0	435	47.383260620354	565
0	437	47.397798602177	566
0	437	47.397798602177	567
0	438	47.416047328939	568
0	438	47.416047328939	569
0	439	47.483281410623	570
0	439	47.483281410623	571
0	440	47.498077984238	572
0	440	47.498077984238	573
0	441	47.501367735054	574
0	441	47.501367735054	575
0	442	47.556046066799	576
0	442	47.556046066799	577
0	444	47.713130129946	578
0	444	47.713130129946	579
0	445	47.78085225507	580
0	445	47.78085225507	581
0	446	47.806911970606	582
0	446	47.806911970606	583
0	448	48.011394240146	584
0	448	48.011394240146	585
0	450	48.158013766105	586
0	450	48.158013766105	587
0	451	48.200487229134	588
0	451	48.200487229134	589
0	452	48.2544020107	590
0	452	48.2544020107	591
0	454	48.308538163509	592
0	454	48.308538163509	593
0	455	48.460297238377	594
0	455	48.460297238377	595
0	456	48.505863928409	596
0	456	48.505863928409	597
0	457	48.546213063255	598
0	457	48.546213063255	599
0	458	48.593692396296	600
0	458	48.593692396296	601
0	459	48.6254420306	602
0	459	48.6254420306	603
0	460	48.729204595566	604
0	460	48.729204595566	605
0	463	48.790482405273	606
0	463	48.790482405273	607
0	466	48.863061619902	608
0	466	48.863061619902	609
0	467	48.891182317693	610
0	467	48.891182317693	611
0	468	48.922786923953	612
0	468	48.922786923953	613
0	471	49.016427162192	614
0	471	49.016427162192	615
0	473	49.057895646599	616
0	473	49.057895646599	617
0	474	49.127474476721	617
0	474	49.127474476721	618
0	476	49.230167851675	619
0	476	49.230167851675	620
0	477	49.409277970064	621
0	477	49.409277970064	622
0	478	49.468990234516	623
0	478	49.468990234516	624
0	479	49.478836755771	625
0	479	49.478836755771	626
0	481	49.561234235237	627
0	481	49.561234235237	628
0	482	49.566108017579	629
0	482	49.566108017579	630
0	483	49.569836325906	631
0	483	49.569836325906	632
0	486	49.993449827607	633
0	486	49.993449827607	634
0	487	50.017065951828	635
0	487	50.017065951828	636
0	488	50.032678022455	637
0	488	50.032678022455	638
0	489	50.115214476724	639
0	489	50.115214476724	640
0	490	50.127598507964	641
0	490	50.127598507964	642
0	491	50.148676567876	643
0	491	50.148676567876	644
0	493	50.189148112263	645
0	493	50.189148112263	646
0	494	50.219515480779	647
0	494	50.219515480779	648
0	496	50.241728180319	649
0	496	50.241728180319	650
0	498	50.326742616326	651
0	498	50.326742616326	652
0	499	50.326802519161	653
0	499	50.326802519161	654
0	502	50.376066350371	655
0	502	50.376066350371	656
0	503	50.492159834256	657
0	503	50.492159834256	658
0	504	50.630298245088	659
0	504	50.630298245088	660
0	505	50.664533862783	661
0	505	50.664533862783	662
0	506	50.697948998191	663
0	506	50.697948998191	664
0	507	50.701050237249	665
0	507	50.701050237249	666
0	508	50.72131845718	667
0	508	50.72131845718	668
0	510	50.774210827021	669
0	510	50.774210827021	670
0	511	50.873978135034	671
0	511	50.873978135034	672
0	512	50.876523790508	673
0	512	50.876523790508	674
0	513	51.202874079942	675
0	513	51.202874079942	676
0	514	51.356197228692	677
0	514	51.356197228692	678
0	515	51.399631942369	679
0	515	51.399631942369	680
0	517	51.648872126902	681
0	517	51.648872126902	682
0	518	51.686953954626	683
0	518	51.686953954626	684
0	519	51.813484815943	685
0	519	51.813484815943	686
0	520	51.836349665604	687
0	520	51.836349665604	688
0	521	51.963531080859	689
0	521	51.963531080859	690
0	522	51.963762523202	691
0	522	51.963762523202	692
0	523	51.975440593842	693
0	523	51.975440593842	694
0	524	51.975537896092	695
0	524	51.975537896092	696
0	525	51.979983349656	697
0	525	51.979983349656	698
0	526	52.025816325915	699
0	526	52.025816325915	700
0	527	52.111547716593	701
0	527	52.111547716593	702
0	528	52.162716901949	703
0	528	52.162716901949	704
0	529	52.186767084302	705
0	529	52.186767084302	706
0	530	52.23106823908	707
0	530	52.23106823908	708
0	532	52.294849355364	709
0	532	52.294849355364	710
0	533	52.330101242659	711
0	533	52.330101242659	712
0	534	52.337027604821	713
0	534	52.337027604821	714
0	536	52.402178477708	715
0	536	52.402178477708	716
0	539	52.557752732615	717
0	539	52.557752732615	718
0	540	52.592382850996	719
0	540	52.592382850996	720
0	542	52.813309420457	721
0	542	52.813309420457	722
0	547	52.918742340518	722
0	547	52.918742340518	723
0	548	52.941175100187	723
0	548	52.941175100187	724
0	550	52.979253051099	725
0	550	52.979253051099	726
0	551	52.98005633936	727
0	551	52.98005633936	728
0	552	53.072142931669	729
0	552	53.072142931669	730
0	553	53.07231191679	731
0	553	53.07231191679	732
0	554	53.136135700617	733
0	554	53.136135700617	734
0	555	53.237075768875	735
0	555	53.237075768875	736
0	557	53.344636346756	737
0	557	53.344636346756	738
0	558	53.382362591043	739
0	558	53.382362591043	740
0	559	53.461255444509	741
0	559	53.461255444509	742
0	560	53.468374214915	742
0	560	53.468374214915	743
0	562	53.550688495279	744
0	562	53.550688495279	745
0	563	53.563499482473	746
0	563	53.563499482473	747
0	565	53.619695032336	748
0	565	53.619695032336	749
0	567	53.836743625541	750
0	567	53.836743625541	751
0	568	53.881148987346	752
0	568	53.881148987346	753
0	569	53.881267383989	754
0	569	53.881267383989	755
0	570	53.921990236405	756
0	570	53.921990236405	757
0	571	53.962474292702	758
0	571	53.962474292702	759
0	572	53.969032214654	760
0	572	53.969032214654	761
0	573	53.979622761264	762
0	573	53.979622761264	763
0	574	54.090179188171	764
0	574	54.090179188171	765
0	575	54.129966726695	766
0	575	54.129966726695	767
0	576	54.212748240426	768
0	576	54.212748240426	769
0	577	54.230033380769	770
0	577	54.230033380769	771
0	578	54.235319496402	772
0	578	54.235319496402	773
0	579	54.292945894405	774
0	579	54.292945894405	775
0	580	54.366840463856	776
0	580	54.366840463856	777
0	581	54.404705454779	778
0	581	54.404705454779	779
0	582	54.461350662629	780
0	582	54.461350662629	781
0	583	54.528246346335	782
0	583	54.528246346335	783
0	585	54.825379886556	784
0	585	54.825379886556	785
0	586	54.850664461263	786
0	586	54.850664461263	787
0	588	54.973152514872	788
0	588	54.973152514872	789
0	589	54.980804832663	790
0	589	54.980804832663	791
0	590	55.046334193874	792
0	590	55.046334193874	793
0	591	55.046741538819	794
0	591	55.046741538819	795
0	592	55.155083293172	796
0	592	55.155083293172	797
0	593	55.212850475802	798
0	593	55.212850475802	799
0	595	55.257695314648	800
0	595	55.257695314648	801
0	597	55.293569334175	802
0	597	55.293569334175	803
0	598	55.345219889617	804
0	598	55.345219889617	805
0	599	55.410919162759	806
0	599	55.410919162759	807
0	600	55.431580444358	808
0	600	55.431580444358	809
0	601	55.443504402476	810
0	601	55.443504402476	811
0	602	55.467421035233	812
0	602	55.467421035233	813
0	607	55.627857123395	813
0	607	55.627857123395	814
0	608	55.640785710633	815
0	608	55.640785710633	816
0	609	55.660846204958	817
0	609	55.660846204958	818
0	610	55.69129297806	819
0	610	55.69129297806	820
0	611	55.695001627147	821
0	611	55.695001627147	822
0	612	55.704492970129	823
0	612	55.704492970129	824
0	614	55.72930603823	825
0	614	55.72930603823	826
0	615	55.740799940088	827
0	615	55.740799940088	828
0	620	55.91733138955	829
0	620	55.91733138955	830
0	621	55.986440537767	831
0	621	55.986440537767	832
0	623	56.110003764866	833
0	623	56.110003764866	834
0	626	56.1613467779	835
0	626	56.1613467779	836
0	627	56.183574143874	837
0	627	56.183574143874	838
0	629	56.225864965121	839
0	629	56.225864965121	840
0	630	56.28013206407	841
0	630	56.28013206407	842
0	631	56.515207211253	843
0	631	56.515207211253	844
0	632	56.59249636987	845
0	632	56.59249636987	846
0	633	56.640162776398	847
0	633	56.640162776398	848
0	634	56.67709912828	849
0	634	56.67709912828	850
0	636	56.808325635861	851
0	636	56.808325635861	852
0	637	56.812099548652	853
0	637	56.812099548652	854
0	638	56.841635358142	855
0	638	56.841635358142	856
0	639	56.871527290897	857
0	639	56.871527290897	858
0	640	56.897987480004	859
0	640	56.897987480004	860
0	641	56.922842215912	861
0	641	56.922842215912	862
0	642	56.938232518743	863
0	642	56.938232518743	864
0	643	56.954550190891	865
0	643	56.954550190891	866
0	644	56.971054318574	867
0	644	56.971054318574	868
0	645	57.031417351074	869
0	645	57.031417351074	870
0	646	57.058452571779	871
0	646	57.058452571779	872
0	647	57.085091058246	873
0	647	57.085091058246	874
0	648	57.179989406133	875
0	648	57.179989406133	876
0	649	57.418174468397	877
0	649	57.418174468397	878
0	651	57.472470377167	879
0	651	57.472470377167	880
0	652	57.485438519921	880
0	652	57.485438519921	881
0	654	57.516603551973	882
0	654	57.516603551973	883
0	656	57.535748756719	884
0	656	57.535748756719	885
0	657	57.57059755347	886
0	657	57.57059755347	887
0	659	57.664856291002	888
0	659	57.664856291002	889
0	662	57.914425820577	890
0	662	57.914425820577	891
0	664	57.973319825608	892
0	664	57.973319825608	893
0	665	57.994239345281	894
0	665	57.994239345281	895
0	666	58.002963193577	896
0	666	58.002963193577	897
0	668	58.116546378833	898
0	668	58.116546378833	899
0	669	58.128786010704	900
0	669	58.128786010704	901
0	670	58.169639887816	902
0	670	58.169639887816	903
0	671	58.189407120352	904
0	671	58.189407120352	905
0	672	58.214084731409	906
0	672	58.214084731409	907
0	673	58.259709275035	908
0	673	58.259709275035	909
0	674	58.285693764946	910
0	674	58.285693764946	911
0	675	58.355002067655	912
0	675	58.355002067655	913
0	677	58.369836288094	913
0	677	58.369836288094	914
0	679	58.384996904607	915
0	679	58.384996904607	916
0	680	58.407939972064	917
0	680	58.407939972064	918
0	681	58.496144513144	919
0	681	58.496144513144	920
0	682	58.549776753372	921
0	682	58.549776753372	922
0	683	58.568102008025	923
0	683	58.568102008025	924
0	684	58.581207658953	925
0	684	58.581207658953	926
0	685	58.591172743188	927
0	685	58.591172743188	928
0	686	58.670677499826	929
0	686	58.670677499826	930
0	687	58.785391736475	931
0	687	58.785391736475	932
0	689	59.06416782381	933
0	689	59.06416782381	934
0	690	59.1172414713	935
0	690	59.1172414713	936
0	691	59.211487277827	937
0	691	59.211487277827	938
0	692	59.236398387093	939
0	692	59.236398387093	940
0	693	59.264155189971	941
0	693	59.264155189971	942
0	694	59.296821942493	943
0	694	59.296821942493	944
0	695	59.320161792046	945
0	695	59.320161792046	946
0	698	59.400171621363	947
0	698	59.400171621363	948
0	699	59.440789299861	949
0	699	59.440789299861	950
0	700	59.460252918011	951
0	700	59.460252918011	952
0	701	59.527228951217	953
0	701	59.527228951217	954
0	702	59.527987141287	955
0	702	59.527987141287	956
0	704	59.595126594546	957
0	704	59.595126594546	958
0	705	59.671759794817	959
0	705	59.671759794817	960
0	706	59.722480482943	961
0	706	59.722480482943	962
0	707	59.747061183764	963
0	707	59.747061183764	964
0	708	59.78547385046	965
0	708	59.78547385046	966
0	709	59.880493731973	967
0	709	59.880493731973	968
0	710	59.949578379524	969
0	710	59.949578379524	970
0	711	60.018720687914	971
0	711	60.018720687914	972
0	712	60.020847405605	973
0	712	60.020847405605	974
0	713	60.035266714261	975
0	713	60.035266714261	976
0	714	60.03832116693	977
0	714	60.03832116693	978
0	715	60.127511267485	979
0	715	60.127511267485	980
0	716	60.160803954376	981
0	716	60.160803954376	982
0	717	60.163461626269	983
0	717	60.163461626269	984
0	718	60.167237767911	985
0	718	60.167237767911	986
0	719	60.185460966374	987
0	719	60.185460966374	988
0	721	60.246989514047	988
0	721	60.246989514047	989
0	723	60.293111256973	990
0	723	60.293111256973	991
0	724	60.326879044509	992
0	724	60.326879044509	993
0	727	60.470819813838	994
0	727	60.470819813838	995
0	728	60.573799978934	996
0	728	60.573799978934	997
0	729	60.642384054696	998
0	729	60.642384054696	999
0	730	60.683838607396	1000
0	730	60.683838607396	1001
0	731	60.787544112079	1002
0	731	60.787544112079	1003
0	732	60.806602532572	1004
0	732	60.806602532572	1005
0	734	60.915984520826	1006
0	734	60.915984520826	1007
0	736	61.037040788213	1008
0	736	61.037040788213	1009
0	737	61.10579275399	1010
0	737	61.10579275399	1011
0	738	61.173848820576	1011
0	738	61.173848820576	1012
0	739	61.200053470571	1013
0	739	61.200053470571	1014
0	741	61.235286751291	1015
0	741	61.235286751291	1016
0	744	61.322969438331	1017
0	744	61.322969438331	1018
0	746	61.338640016348	1019
0	746	61.338640016348	1020
0	749	61.365169149964	1020
0	749	61.365169149964	1021
0	750	61.391363489848	1022
0	750	61.391363489848	1023
0	751	61.427903233496	1024
0	751	61.427903233496	1025
0	754	61.441220741341	1026
0	754	61.441220741341	1027
0	755	61.4559633518	1028
0	755	61.4559633518	1029
0	756	61.468056915091	1030
0	756	61.468056915091	1031
0	757	61.48086618703	1032
0	757	61.48086618703	1033
0	758	61.491390768689	1033
0	758	61.491390768689	1034
0	759	61.520112421314	1035
0	759	61.520112421314	1036
0	760	61.54817498856	1037
0	760	61.54817498856	1038
0	761	61.694505227458	1039
0	761	61.694505227458	1040
0	762	61.697058257475	1041
0	762	61.697058257475	1042
0	763	61.785790718251	1043
0	763	61.785790718251	1044
0	764	61.893533569127	1045
0	764	61.893533569127	1046
0	766	61.923303491108	1047
0	766	61.923303491108	1048
0	767	61.935306239573	1049
0	767	61.935306239573	1050
0	769	62.042574574266	1051
0	769	62.042574574266	1052
0	770	62.051877642496	1053
0	770	62.051877642496	1054
0	771	62.130745023323	1055
0	771	62.130745023323	1056
0	772	62.199219909489	1057
0	772	62.199219909489	1058
0	773	62.232212094941	1059
0	773	62.232212094941	1060
0	774	62.241369342755	1061
0	774	62.241369342755	1062
0	775	62.32136571041	1063
0	775	62.32136571041	1064
0	776	62.360015971198	1065
0	776	62.360015971198	1066
0	777	62.434386901265	1067
0	777	62.434386901265	1068
0	779	62.528171159456	1069
0	779	62.528171159456	1070
0	780	62.531023796037	1071
0	780	62.531023796037	1072
0	781	62.537861292841	1073
0	781	62.537861292841	1074
0	783	62.67563383467	1075
0	783	62.67563383467	1076
0	784	62.687476598423	1077
0	784	62.687476598423	1078
0	785	62.710464805956	1079
0	785	62.710464805956	1080
0	786	62.82890516631	1081
0	786	62.82890516631	1082
0	787	62.894384947601	1083
0	787	62.894384947601	1084
0	788	62.916837943343	1085
0	788	62.916837943343	1086
0	789	62.996426971588	1087
0	789	62.996426971588	1088
0	790	63.015774735417	1089
0	790	63.015774735417	1090
0	791	63.029871271772	1091