version 3
run General-0-20231011-13:57:25-6857
attr configname General
attr datetime 20231011-13:57:25
attr datetimef 20231011-135725
attr experiment General
attr inifile omnetpp.ini
attr iterationvars ""
attr iterationvarsd ""
attr iterationvarsf ""
attr measurement ""
attr network Reliability
attr processid 6857
attr repetition 0
attr replication #0
attr resultdir results
attr runnumber 0
attr seedset 0
config network Reliability
config Reliability.node[*].transmissionTime "uniform(1s, 2s)"
config Reliability.node[*].delayTime "uniform(0.01s, 0.2s)"
config Reliability.node[*].lossProbability 0
config record-eventlog true
config sim-time-limit 240s
config repeat 5

vector 0 Reliability.node[0] txVector ETV
vector 1 Reliability.node[0] rxVector ETV
vector 2 Reliability.node[1] rxVector ETV
vector 3 Reliability.node[1] txVector ETV
vector 4 Reliability.node[2] rxVector ETV
vector 5 Reliability.node[2] txVector ETV
vector 6 Reliability.node[3] rxVector ETV
vector 7 Reliability.node[3] txVector ETV
vector 8 Reliability.node[4] rxVector ETV
vector 9 Reliability.node[4] txVector ETV
vector 10 Reliability.node[5] rxVector ETV
0	0	0	1
0	1	0.114274565438	2
0	1	0.114274565438	3
0	5	0.951879888213	3
0	5	0.951879888213	4
0	8	1.958540309528	5
0	8	1.958540309528	6
0	11	2.008592863939	7
0	11	2.008592863939	8
0	12	3.07962892265	9
0	12	3.07962892265	10
0	13	3.43851748093	11
0	13	3.43851748093	12
0	19	4.727800799207	13
0	19	4.727800799207	14
0	20	5.27113732377	15
0	20	5.27113732377	16
0	22	6.406680332869	17
0	22	6.406680332869	18
0	23	6.911058340761	19
0	23	6.911058340761	20
0	25	7.512587939296	21
0	25	7.512587939296	22
0	26	8.175613952176	23
0	26	8.175613952176	24
0	27	8.260443615893	24
0	27	8.260443615893	25
0	31	8.563921515039	25
0	31	8.563921515039	26
0	33	8.647806112561	27
0	33	8.647806112561	28
0	35	9.793249453026	29
0	35	9.793249453026	30
0	36	9.872539338356	31
0	36	9.872539338356	32
0	37	10.300946144759	33
0	37	10.300946144759	34
0	38	10.466270093248	35
0	38	10.466270093248	36
0	40	11.108677802681	37
0	40	11.108677802681	38
0	41	11.19758656591	39
0	41	11.19758656591	40
0	42	11.739547658152	41
0	42	11.739547658152	42
0	43	12.425219362509	43
0	43	12.425219362509	44
0	44	12.438861947693	44
0	44	12.438861947693	45
0	47	12.611955153922	46
0	47	12.611955153922	47
0	48	12.761786124743	48
0	48	12.761786124743	49
0	50	12.983973246207	50
0	50	12.983973246207	51
0	51	13.763226980018	52
0	51	13.763226980018	53
0	55	14.101106108354	53
0	55	14.101106108354	54
0	56	14.113614269951	55
0	56	14.113614269951	56
0	57	14.384632218005	57
0	57	14.384632218005	58
0	58	14.432948384833	59
0	58	14.432948384833	60
0	59	14.452624444523	61
0	59	14.452624444523	62
0	60	14.818941672938	63
0	60	14.818941672938	64
0	62	15.431597443251	65
0	62	15.431597443251	66
0	63	15.581999644592	67
0	63	15.581999644592	68
0	64	16.125420504183	69
0	64	16.125420504183	70
0	65	16.302867690874	71
0	65	16.302867690874	72
0	66	16.317727008508	73
0	66	16.317727008508	74
0	67	16.342189725861	75
0	67	16.342189725861	76
0	71	16.709316007281	77
0	71	16.709316007281	78
0	78	17.249410020841	79
0	78	17.249410020841	80
0	79	17.362297276408	81
0	79	17.362297276408	82
0	81	17.592273781849	83
0	81	17.592273781849	84
0	82	17.715547760156	85
0	82	17.715547760156	86
0	83	17.772594642759	87
0	83	17.772594642759	88
0	84	18.671504552197	89
0	84	18.671504552197	90
0	85	18.81149500832	91
0	85	18.81149500832	92
0	86	19.202159030085	93
0	86	19.202159030085	94
0	87	19.300277104941	94
0	87	19.300277104941	95
0	90	19.353867518649	96
0	90	19.353867518649	97
0	91	19.390986837353	98
0	91	19.390986837353	99
0	92	19.40607160151	100
0	92	19.40607160151	101
0	95	20.530810128073	102
0	95	20.530810128073	103
0	96	20.536749289744	104
0	96	20.536749289744	105
0	98	20.636920770817	106
0	98	20.636920770817	107
0	99	20.655442334878	108
0	99	20.655442334878	109
0	100	20.678977841185	110
0	100	20.678977841185	111
0	101	20.735365281768	112
0	101	20.735365281768	113
0	102	21.02408702842	114
0	102	21.02408702842	115
0	106	21.542419863283	115
0	106	21.542419863283	116
0	107	21.778184673703	117
0	107	21.778184673703	118
0	108	21.939318769751	119
0	108	21.939318769751	120
0	109	22.08262638316	121
0	109	22.08262638316	122
0	110	22.091307254209	123
0	110	22.091307254209	124
0	111	22.123656113241	125
0	111	22.123656113241	126
0	112	22.189950105176	127
0	112	22.189950105176	128
0	114	22.439253867326	129
0	114	22.439253867326	130
0	116	22.902004656103	131
0	116	22.902004656103	132
0	117	23.050735313562	133
0	117	23.050735313562	134
0	118	23.12452964059	135
0	118	23.12452964059	136
0	120	23.610025472847	137
0	120	23.610025472847	138
0	121	23.651727127484	139
0	121	23.651727127484	140
0	122	23.804252062598	141
0	122	23.804252062598	142
0	123	23.8210848857	143
0	123	23.8210848857	144
0	124	24.295057210328	145
0	124	24.295057210328	146
0	125	24.463514757044	147
0	125	24.463514757044	148
0	126	24.571771916584	149
0	126	24.571771916584	150
0	127	24.652003903827	151
0	127	24.652003903827	152
0	128	24.833950155555	153
0	128	24.833950155555	154
0	135	25.508666461939	155
0	135	25.508666461939	156
0	137	25.595846878472	157
0	137	25.595846878472	158
0	138	25.604729133733	159
0	138	25.604729133733	160
0	140	25.91653561704	161
0	140	25.91653561704	162
0	141	26.013019026084	162
0	141	26.013019026084	163
0	144	26.162612834647	164
0	144	26.162612834647	165
0	145	26.331094521983	166
0	145	26.331094521983	167
0	146	26.4238601333	168
0	146	26.4238601333	169
0	147	26.505985918338	170
0	147	26.505985918338	171
0	148	26.736081091128	172
0	148	26.736081091128	173
0	149	26.941214345816	174
0	149	26.941214345816	175
0	150	27.080268656895	176
0	150	27.080268656895	177
0	151	27.083684584466	178
0	151	27.083684584466	179
0	152	27.301072619465	180
0	152	27.301072619465	181
0	153	27.687182511343	182
0	153	27.687182511343	183
0	155	27.735205241362	184
0	155	27.735205241362	185
0	156	27.787109145383	186
0	156	27.787109145383	187
0	158	27.969921774323	187
0	158	27.969921774323	188
0	160	28.05609823591	189
0	160	28.05609823591	190
0	161	28.083739934829	191
0	161	28.083739934829	192
0	162	28.152951780641	193
0	162	28.152951780641	194
0	168	28.574614652741	195
0	168	28.574614652741	196
0	169	28.586998945523	197
0	169	28.586998945523	198
0	171	28.911317114545	199
0	171	28.911317114545	200
0	173	28.950712919118	201
0	173	28.950712919118	202
0	174	29.016550974409	203
0	174	29.016550974409	204
0	176	29.183233749214	205
0	176	29.183233749214	206
0	177	29.26356831463	207
0	177	29.26356831463	208
0	178	29.572520175623	209
0	178	29.572520175623	210
0	179	29.616527203405	211
0	179	29.616527203405	212
0	181	29.81418211536	213
0	181	29.81418211536	214
0	182	30.050149141999	215
0	182	30.050149141999	216
0	183	30.228848385251	217
0	183	30.228848385251	218
0	184	30.291474332643	219
0	184	30.291474332643	220
0	185	30.344205353686	220
0	185	30.344205353686	221
0	186	30.399373399153	222
0	186	30.399373399153	223
0	189	30.555715845338	224
0	189	30.555715845338	225
0	190	30.632956834677	226
0	190	30.632956834677	227
0	191	30.697707156766	228
0	191	30.697707156766	229
0	192	30.920270713932	230
0	192	30.920270713932	231
0	195	31.24978348231	232
0	195	31.24978348231	233
0	196	31.617776247266	234
0	196	31.617776247266	235
0	197	31.636559311954	236
0	197	31.636559311954	237
0	198	31.741241850749	238
0	198	31.741241850749	239
0	199	31.798511549239	240
0	199	31.798511549239	241
0	200	31.990727440802	242
0	200	31.990727440802	243
0	201	32.114612933436	244
0	201	32.114612933436	245
0	202	32.220710596114	246
0	202	32.220710596114	247
0	203	32.268969467917	248
0	203	32.268969467917	249
0	205	32.341504983538	250
0	205	32.341504983538	251
0	206	32.35491843	252
0	206	32.35491843	253
0	207	32.621824352828	254
0	207	32.621824352828	255
0	209	32.728153788858	256
0	209	32.728153788858	257
0	214	32.988359463043	258
0	214	32.988359463043	259
0	215	33.005143915025	260
0	215	33.005143915025	261
0	216	33.043127995652	261
0	216	33.043127995652	262
0	217	33.111384437302	263
0	217	33.111384437302	264
0	218	33.169465677671	265
0	218	33.169465677671	266
0	219	33.212457419561	267
0	219	33.212457419561	268
0	224	33.739581243974	269
0	224	33.739581243974	270
0	225	33.741003900468	271
0	225	33.741003900468	272
0	226	33.762159597733	273
0	226	33.762159597733	274
0	227	33.789921352684	275
0	227	33.789921352684	276
0	228	34.229804122431	277
0	228	34.229804122431	278
0	229	34.313455899215	279
0	229	34.313455899215	280
0	233	34.471064311543	281
0	233	34.471064311543	282
0	234	34.54803728551	283
0	234	34.54803728551	284
0	235	34.670971973289	285
0	235	34.670971973289	286
0	237	34.703319601131	287
0	237	34.703319601131	288
0	238	34.73218817888	289
0	238	34.73218817888	290
0	239	34.817961705258	291
0	239	34.817961705258	292
0	240	34.819007670646	293
0	240	34.819007670646	294
0	243	34.996515958381	295
0	243	34.996515958381	296
0	245	35.090524276072	296
0	245	35.090524276072	297
0	246	35.119508195343	298
0	246	35.119508195343	299
0	247	35.250345966247	300
0	247	35.250345966247	301
0	249	35.491823252725	302
0	249	35.491823252725	303
0	252	35.681502496184	304
0	252	35.681502496184	305
0	253	35.743886208485	306
0	253	35.743886208485	307
0	254	36.007211680367	308
0	254	36.007211680367	309
0	255	36.03899827921	310
0	255	36.03899827921	311
0	256	36.130827852015	312
0	256	36.130827852015	313
0	257	36.17281790648	314
0	257	36.17281790648	315
0	258	36.232529183259	316
0	258	36.232529183259	317
0	259	36.379758303919	318
0	259	36.379758303919	319
0	260	36.41620904259	320
0	260	36.41620904259	321
0	261	36.464577911794	322
0	261	36.464577911794	323
0	262	36.677908470432	324
0	262	36.677908470432	325
0	263	37.034280667157	326
0	263	37.034280667157	327
0	264	37.071606606103	328
0	264	37.071606606103	329
0	265	37.075913922303	330
0	265	37.075913922303	331
0	266	37.140594284006	332
0	266	37.140594284006	333
0	267	37.154723165383	334
0	267	37.154723165383	335
0	268	37.279018552929	336
0	268	37.279018552929	337
0	269	37.373864667692	338
0	269	37.373864667692	339
0	270	37.513677729113	340
0	270	37.513677729113	341
0	272	37.735956609823	342
0	272	37.735956609823	343
0	274	37.835540741493	344
0	274	37.835540741493	345
0	275	38.040329069039	346
0	275	38.040329069039	347
0	276	38.13198450941	348
0	276	38.13198450941	349
0	277	38.166064521854	350
0	277	38.166064521854	351
0	278	38.237480947449	352
0	278	38.237480947449	353
0	279	38.413407231042	354
0	279	38.413407231042	355
0	280	38.474348181068	356
0	280	38.474348181068	357
0	287	38.849804491812	358
0	287	38.849804491812	359
0	290	38.934018744898	360
0	290	38.934018744898	361
0	291	38.957556408882	362
0	291	38.957556408882	363
0	292	39.021256530613	364
0	292	39.021256530613	365
0	293	39.077340761155	366
0	293	39.077340761155	367
0	294	39.137216106864	368
0	294	39.137216106864	369
0	295	39.218516999272	370
0	295	39.218516999272	371
0	296	39.332847389129	372
0	296	39.332847389129	373
0	297	39.494491468091	374
0	297	39.494491468091	375
0	299	39.599724597606	375
0	299	39.599724597606	376
0	302	39.745041089607	376
0	302	39.745041089607	377
0	303	39.75985148007	378
0	303	39.75985148007	379
0	304	39.780529228595	380
0	304	39.780529228595	381
0	306	39.842202950096	382
0	306	39.842202950096	383
0	307	39.89546413378	384
0	307	39.89546413378	385
0	308	39.999322951117	386
0	308	39.999322951117	387
0	309	40.018939057739	388
0	309	40.018939057739	389
0	310	40.262675148856	390
0	310	40.262675148856	391
0	311	40.458070005944	392
0	311	40.458070005944	393
0	312	40.759392559115	394
0	312	40.759392559115	395
0	313	40.80307522101	396
0	313	40.80307522101	397
0	314	40.887535200424	398
0	314	40.887535200424	399
0	315	40.960270156927	400
0	315	40.960270156927	401
0	316	40.977668080255	402
0	316	40.977668080255	403
0	317	41.072457114349	404
0	317	41.072457114349	405
0	319	41.10522910957	406
0	319	41.10522910957	407
0	320	41.137009821675	408
0	320	41.137009821675	409
0	321	41.138759215888	410
0	321	41.138759215888	411
0	323	41.317050914886	412
0	323	41.317050914886	413
0	327	41.402285862867	413
0	327	41.402285862867	414
0	331	41.697135843969	415
0	331	41.697135843969	416
0	332	41.766020658982	417
0	332	41.766020658982	418
0	333	41.910461740244	419
0	333	41.910461740244	420
0	334	41.935890221145	421
0	334	41.935890221145	422
0	335	41.952443414323	423
0	335	41.952443414323	424
0	337	42.149521179739	425
0	337	42.149521179739	426
0	338	42.261831383423	427
0	338	42.261831383423	428
0	339	42.338527534233	429
0	339	42.338527534233	430
0	340	42.367601644596	430
0	340	42.367601644596	431
0	341	42.36869950115	432
0	341	42.36869950115	433
0	342	42.374797020296	434
0	342	42.374797020296	435
0	345	42.46588021135	436
0	345	42.46588021135	437
0	346	42.607618565948	438
0	346	42.607618565948	439
0	347	42.640385695576	440
0	347	42.640385695576	441
0	348	42.641112773266	442
0	348	42.641112773266	443
0	349	42.849801731914	444
0	349	42.849801731914	445
0	351	42.971959414593	446
0	351	42.971959414593	447
0	352	43.006048621437	448
0	352	43.006048621437	449
0	353	43.024722976002	450
0	353	43.024722976002	451
0	357	43.317195081992	452
0	357	43.317195081992	453
0	358	43.365050085431	454
0	358	43.365050085431	455
0	359	43.407887560736	456
0	359	43.407887560736	457
0	360	43.543373425447	458
0	360	43.543373425447	459
0	362	43.634866246923	460
0	362	43.634866246923	461
0	363	43.81435620077	462
0	363	43.81435620077	463
0	364	43.858130021263	464
0	364	43.858130021263	465
0	365	43.911641910082	466
0	365	43.911641910082	467
0	366	43.993238262249	468
0	366	43.993238262249	469
0	367	43.994445717006	470
0	367	43.994445717006	471
0	368	44.036283881464	472
0	368	44.036283881464	473
0	370	44.120228054867	474
0	370	44.120228054867	475
0	371	44.19149984551	476
0	371	44.19149984551	477
0	372	44.262770118035	478
0	372	44.262770118035	479
0	375	44.292858265687	480
0	375	44.292858265687	481
0	376	44.324366471588	482
0	376	44.324366471588	483
0	378	44.454544629512	484
0	378	44.454544629512	485
0	380	44.533975019172	486
0	380	44.533975019172	487
0	381	44.561515102351	488
0	381	44.561515102351	489
0	382	44.875260180237	490
0	382	44.875260180237	491
0	383	44.882536787084	491
0	383	44.882536787084	492
0	384	44.885984407694	493
0	384	44.885984407694	494
0	387	44.948822747627	494
0	387	44.948822747627	495
0	391	45.220322233274	496
0	391	45.220322233274	497
0	392	45.325759974278	498
0	392	45.325759974278	499
0	393	45.391496447521	500
0	393	45.391496447521	501
0	394	45.397203568844	502
0	394	45.397203568844	503
0	395	45.594837950586	504
0	395	45.594837950586	505
0	396	45.734668031193	506
0	396	45.734668031193	507
0	397	45.753865094271	508
0	397	45.753865094271	509
0	398	45.782847939601	510
0	398	45.782847939601	511
0	399	45.840098155116	512
0	399	45.840098155116	513
0	400	45.860502934424	514
0	400	45.860502934424	515
0	401	45.870102115502	516
0	401	45.870102115502	517
0	402	45.928960814097	518
0	402	45.928960814097	519
0	403	45.933906703423	520
0	403	45.933906703423	521
0	405	46.036695782846	522
0	405	46.036695782846	523
0	406	46.053610281396	524
0	406	46.053610281396	525
0	407	46.103644558417	526
0	407	46.103644558417	527
0	410	46.380552705492	528
0	410	46.380552705492	529
0	411	46.467983218982	530
0	411	46.467983218982	531
0	412	46.634453473423	532
0	412	46.634453473423	533
0	413	46.661390953201	534
0	413	46.661390953201	535
0	414	46.712434157273	536
0	414	46.712434157273	537
0	415	46.798566243753	538
0	415	46.798566243753	539
0	416	46.90096544655	540
0	416	46.90096544655	541
0	417	47.116817896563	542
0	417	47.116817896563	543
0	419	47.217608577648	544
0	419	47.217608577648	545
0	421	47.232678835476	545
0	421	47.232678835476	546
0	422	47.252280133402	547
0	422	47.252280133402	548
0	423	47.308197559798	549
0	423	47.308197559798	550
0	424	47.31215188017	551
0	424	47.31215188017	552
0	426	47.329840187036	553
0	426	47.329840187036	554
0	427	47.383509327765	555
0	427	47.383509327765	556
0	429	47.412895846369	557
0	429	47.412895846369	558
0	430	47.512680461782	559
0	430	47.512680461782	560
0	431	47.526263751279	561
0	431	47.526263751279	562
0	432	47.661598052012	563
0	432	47.661598052012	564
0	435	47.76789290439	565
0	435	47.76789290439	566
0	436	47.837072597466	567
0	436	47.837072597466	568
0	437	47.868064367739	569
0	437	47.868064367739	570
0	438	47.89976814543	571
0	438	47.89976814543	572
0	439	48.201333000699	573
0	439	48.201333000699	574
0	440	48.30346105435	575
0	440	48.30346105435	576
0	441	48.31841072926	577
0	441	48.31841072926	578
0	442	48.333840603408	579
0	442	48.333840603408	580
0	443	48.455883137891	581
0	443	48.455883137891	582
0	444	48.48430545333	583
0	444	48.48430545333	584
0	445	48.524509497777	585
0	445	48.524509497777	586
0	446	48.564960726845	587
0	446	48.564960726845	588
0	447	48.565188623884	589
0	447	48.565188623884	590
0	449	48.816788063259	591
0	449	48.816788063259	592
0	450	48.865150903395	593
0	450	48.865150903395	594
0	451	48.9002434343	595
0	451	48.9002434343	596
0	452	48.997240812481	597
0	452	48.997240812481	598
0	454	49.102923740918	599
0	454	49.102923740918	600
0	455	49.109621407758	601
0	455	49.109621407758	602
0	456	49.158293918662	603
0	456	49.158293918662	604
0	457	49.25986792301	605
0	457	49.25986792301	606
0	460	49.442529187419	607
0	460	49.442529187419	608
0	461	49.456255393916	609
0	461	49.456255393916	610
0	462	49.509689986895	611
0	462	49.509689986895	612
0	463	49.623831011197	613
0	463	49.623831011197	614
0	464	49.775469487269	615
0	464	49.775469487269	616
0	465	49.776651105155	617
0	465	49.776651105155	618
0	466	49.838761699028	619
0	466	49.838761699028	620
0	469	49.884701450729	621
0	469	49.884701450729	622
0	470	49.90990674604	623
0	470	49.90990674604	624
0	471	49.928302241581	625
0	471	49.928302241581	626
0	472	49.960009077895	626
0	472	49.960009077895	627
0	473	49.96801191413	628
0	473	49.96801191413	629
0	478	50.30109990917	630
0	478	50.30109990917	631
0	479	50.313008056031	632
0	479	50.313008056031	633
0	480	50.479678598742	634
0	480	50.479678598742	635
0	481	50.51089755907	636
0	481	50.51089755907	637
0	482	50.514994992936	638
0	482	50.514994992936	639
0	483	50.525601632837	640
0	483	50.525601632837	641
0	484	50.650661968822	642
0	484	50.650661968822	643
0	486	50.872221119192	644
0	486	50.872221119192	645
0	488	50.936239551107	646
0	488	50.936239551107	647
0	489	50.93901157937	647
0	489	50.93901157937	648
0	490	50.953246970986	649
0	490	50.953246970986	650
0	491	50.967218023036	651
0	491	50.967218023036	652
0	492	50.997122165888	653
0	492	50.997122165888	654
0	493	51.028074625954	655
0	493	51.028074625954	656
0	494	51.033616783406	657
0	494	51.033616783406	658
0	495	51.104295176552	659
0	495	51.104295176552	660
0	496	51.131303192967	661
0	496	51.131303192967	662
0	499	51.192370713735	662
0	499	51.192370713735	663
0	502	51.323422550804	664
0	502	51.323422550804	665
0	503	51.331816504358	666
0	503	51.331816504358	667
0	505	51.42198047964	668
0	505	51.42198047964	669
0	506	51.571788900501	670
0	506	51.571788900501	671
0	507	51.679274737413	672
0	507	51.679274737413	673
0	508	51.68710185086	674
0	508	51.68710185086	675
0	509	51.864435288418	676
0	509	51.864435288418	677
0	511	51.937840972052	678
0	511	51.937840972052	679
0	513	51.94744614576	680
0	513	51.94744614576	681
0	515	52.074555451915	682
0	515	52.074555451915	683
0	516	52.210285132992	684
0	516	52.210285132992	685
0	518	52.264789901397	686
0	518	52.264789901397	687
0	520	52.343607176571	688
0	520	52.343607176571	689
0	521	52.409145408635	690
0	521	52.409145408635	691
0	524	52.458252002378	691
0	524	52.458252002378	692
0	526	52.52404492286	693
0	526	52.52404492286	694
0	527	52.526847021574	695
0	527	52.526847021574	696
0	528	52.547671257361	697
0	528	52.547671257361	698
0	529	52.548201313849	699
0	529	52.548201313849	700
0	530	52.57787377989	701
0	530	52.57787377989	702
0	531	52.628674982214	703
0	531	52.628674982214	704
0	532	52.698294027233	705
0	532	52.698294027233	706
0	534	52.780996320412	707
0	534	52.780996320412	708
0	535	52.801359329419	709
0	535	52.801359329419	710
0	536	52.923588307394	711
0	536	52.923588307394	712
0	537	52.942741913396	713
0	537	52.942741913396	714
0	540	53.051193488573	715
0	540	53.051193488573	716
0	541	53.134508642017	717
0	541	53.134508642017	718
0	542	53.182668796569	719
0	542	53.182668796569	720
0	543	53.289812519795	721
0	543	53.289812519795	722
0	544	53.293972919431	723
0	544	53.293972919431	724
0	545	53.396344141758	725
0	545	53.396344141758	726
0	546	53.603014826616	727
0	546	53.603014826616	728
0	547	53.62356038429	729
0	547	53.62356038429	730
0	548	53.629260775087	731
0	548	53.629260775087	732
0	550	53.703222070913	733
0	550	53.703222070913	734
0	551	53.722129620556	735
0	551	53.722129620556	736
0	552	53.803658408535	737
0	552	53.803658408535	738
0	553	53.895762515495	739
0	553	53.895762515495	740
0	554	53.967494992214	741
0	554	53.967494992214	742
0	556	53.982380158957	743
0	556	53.982380158957	744
0	557	53.984795714226	745
0	557	53.984795714226	746
0	558	54.040702900317	747
0	558	54.040702900317	748
0	559	54.09019146395	749
0	559	54.09019146395	750
0	560	54.173986523232	751
0	560	54.173986523232	752
0	561	54.196892573597	753
0	561	54.196892573597	754
0	563	54.302486964162	755
0	563	54.302486964162	756
0	565	54.329760633019	757
0	565	54.329760633019	758
0	566	54.481410944558	759
0	566	54.481410944558	760
0	567	54.590087201794	761
0	567	54.590087201794	762
0	568	54.662852294857	763
0	568	54.662852294857	764
0	570	54.713557526811	765
0	570	54.713557526811	766
0	571	54.715442148344	767
0	571	54.715442148344	768
0	572	54.732864367822	769
0	572	54.732864367822	770
0	573	54.760228947082	771
0	573	54.760228947082	772
0	574	54.847913216892	773
0	574	54.847913216892	774
0	575	54.915638358534	775
0	575	54.915638358534	776
0	576	54.945577724047	777
0	576	54.945577724047	778
0	577	55.032286778012	779
0	577	55.032286778012	780
0	578	55.067991168893	781
0	578	55.067991168893	782
0	579	55.080211557044	783
0	579	55.080211557044	784
0	580	55.1159479234	785
0	580	55.1159479234	786
0	581	55.147531351485	787
0	581	55.147531351485	788
0	582	55.475438313219	789
0	582	55.475438313219	790
0	584	55.56972416807	791
0	584	55.56972416807	792
0	587	55.58809211337	793
0	587	55.58809211337	794
0	588	55.613254231006	794
0	588	55.613254231006	795
0	589	55.648113633003	796
0	589	55.648113633003	797
0	591	55.678165180076	798
0	591	55.678165180076	799
0	592	55.714029850537	800
0	592	55.714029850537	801
0	594	55.828156457523	802
0	594	55.828156457523	803
0	596	55.8702110144	804
0	596	55.8702110144	805
0	597	55.918572336744	806
0	597	55.918572336744	807
0	599	55.975601861346	808
0	599	55.975601861346	809
0	600	56.011906423488	810
0	600	56.011906423488	811
0	601	56.08884961466	812
0	601	56.08884961466	813
0	604	56.178490642805	814
0	604	56.178490642805	815
0	605	56.214700078548	816
0	605	56.214700078548	817
0	606	56.228012891548	818
0	606	56.228012891548	819
0	607	56.243747077461	820
0	607	56.243747077461	821
0	610	56.316958206716	822
0	610	56.316958206716	823
0	612	56.371917826509	824
0	612	56.371917826509	825
0	616	56.544937059007	826
0	616	56.544937059007	827
0	617	56.576448789241	828
0	617	56.576448789241	829
0	618	56.618071643682	830
0	618	56.618071643682	831
0	619	56.634949559187	832
0	619	56.634949559187	833
0	620	56.639423583579	834
0	620	56.639423583579	835
0	622	56.834548970345	836
0	622	56.834548970345	837
0	623	56.852755405443	838
0	623	56.852755405443	839
0	625	56.886266732728	840
0	625	56.886266732728	841
0	626	56.904369326151	841
0	626	56.904369326151	842
0	627	57.003648414585	843
0	627	57.003648414585	844
0	628	57.168988427808	845
0	628	57.168988427808	846
0	629	57.191044454936	847
0	629	57.191044454936	848
0	632	57.319836301487	849
0	632	57.319836301487	850
0	633	57.340801226977	851
0	633	57.340801226977	852
0	634	57.362717916656	853
0	634	57.362717916656	854
0	635	57.389945437082	855
0	635	57.389945437082	856
0	636	57.413334376061	857
0	636	57.413334376061	858
0	637	57.438057018786	859
0	637	57.438057018786	860
0	638	57.484902605979	861
0	638	57.484902605979	862
0	639	57.686119993757	863
0	639	57.686119993757	864
0	640	57.79023396429	865
0	640	57.79023396429	866
0	643	57.873106212481	867
0	643	57.873106212481	868
0	645	57.908267394965	869
0	645	57.908267394965	870
0	646	57.915630229321	870
0	646	57.915630229321	871
0	647	57.941752369592	871
0	647	57.941752369592	872
0	648	57.977465109021	873
0	648	57.977465109021	874
0	653	58.101656591108	874
0	653	58.101656591108	875
0	654	58.135397727648	876
0	654	58.135397727648	877
0	655	58.146559339544	878
0	655	58.146559339544	879
0	656	58.180674957156	880
0	656	58.180674957156	881
0	658	58.19406863995	882
0	658	58.19406863995	883
0	659	58.226023115124	884
0	659	58.226023115124	885
0	661	58.235388472596	886
0	661	58.235388472596	887
0	662	58.297443875122	888
0	662	58.297443875122	889
0	663	58.302301199598	890
0	663	58.302301199598	891
0	664	58.341979351834	892
0	664	58.341979351834	893
0	665	58.420452216602	894
0	665	58.420452216602	895
0	666	58.47923752999	896
0	666	58.47923752999	897
0	668	58.521397976579	898
0	668	58.521397976579	899
0	669	58.562473627729	900
0	669	58.562473627729	901
0	671	58.593993482614	902
0	671	58.593993482614	903
0	672	58.631850071793	904
0	672	58.631850071793	905
0	673	58.6557198601	906
0	673	58.6557198601	907
0	674	58.725922982323	908
0	674	58.725922982323	909
0	675	58.736034467421	910
0	675	58.736034467421	911
0	676	58.866465730758	912
0	676	58.866465730758	913
0	677	58.976960899382	914
0	677	58.976960899382	915
0	678	59.076571014088	916
0	678	59.076571014088	917
0	679	59.207840829737	918
0	679	59.207840829737	919
0	681	59.231011156881	920
0	681	59.231011156881	921
0	683	59.330425642143	922
0	683	59.330425642143	923
0	684	59.374034973335	924
0	684	59.374034973335	925
0	685	59.399858823372	926
0	685	59.399858823372	927
0	686	59.436807382215	928
0	686	59.436807382215	929
0	687	59.459491261846	930
0	687	59.459491261846	931
0	688	59.460049347539	932
0	688	59.460049347539	933
0	690	59.602517131064	934
0	690	59.602517131064	935
0	691	59.650019657062	936
0	691	59.650019657062	937
0	693	59.705785467359	937
0	693	59.705785467359	938
0	694	59.732270512275	939
0	694	59.732270512275	940
0	695	59.762554120165	941
0	695	59.762554120165	942
0	696	59.769745112435	943
0	696	59.769745112435	944
0	697	59.785196896549	945
0	697	59.785196896549	946
0	699	59.841784440328	947
0	699	59.841784440328	948
0	700	59.960448084702	949
0	700	59.960448084702	950
0	701	59.97113724686	951
0	701	59.97113724686	952
0	702	60.069819673864	953
0	702	60.069819673864	954
0	703	60.073526662498	955
0	703	60.073526662498	956
0	704	60.08443346627	957
0	704	60.08443346627	958
0	705	60.089757399333	959
0	705	60.089757399333	960
0	706	60.101465166833	961
0	706	60.101465166833	962
0	707	60.109220650665	963
0	707	60.109220650665	964
0	708	60.150440750867	965
0	708	60.150440750867	966
0	709	60.174763071193	967
0	709	60.174763071193	968
0	710	60.177629412693	969
0	710	60.177629412693	970
0	711	60.228790894964	971
0	711	60.228790894964	972
0	713	60.459810001219	973
0	713	60.459810001219	974
0	715	60.535241345984	975
0	715	60.535241345984	976
0	716	60.588745961484	977
0	716	60.588745961484	978
0	717	60.602892361124	979
0	717	60.602892361124	980
0	718	60.644839851052	981
0	718	60.644839851052	982
0	719	60.675271209376	983
0	719	60.675271209376	984
0	721	60.871558797157	985
0	721	60.871558797157	986
0	723	60.911562388103	987
0	723	60.911562388103	988
0	725	60.950925536166	989
0	725	60.950925536166	990
0	727	60.994086021394	991
0	727	60.994086021394	992
0	728	60.997573836717	993
0	728	60.997573836717	994
0	729	61.015125506049	995
0	729	61.015125506049	996
0	730	61.087035365825	997
0	730	61.087035365825	998
0	731	61.107569040094	999
0	731	61.107569040094	1000
0	733	61.136026850404	1001
0	733	61.136026850404	1002
0	734	61.178134989319	1003
0	734	61.178134989319	1004
0	736	61.237927393196	1005
0	736	61.237927393196	1006
0	737	61.240146019844	1007
0	737	61.240146019844	1008
0	739	61.271900427409	1009
0	739	61.271900427409	1010
0	740	61.302102839861	1011
0	740	61.302102839861	1012
0	742	61.44646202754	1013
0	742	61.44646202754	1014
0	743	61.453080514982	1015
0	743	61.453080514982	1016
0	744	61.498191897366	1017
0	744	61.498191897366	1018
0	746	61.535905561519	1019
0	746	61.535905561519	1020
0	747	61.614944602791	1021
0	747	61.614944602791	1022
0	748	61.616727954295	1023
0	748	61.616727954295	1024
0	749	61.631815980179	1025
0	749	61.631815980179	1026
0	750	61.642410804643	1027
0	750	61.642410804643	1028
0	751	61.771567523811	1029
0	751	61.771567523811	1030
0	752	61.788789959167	1031
0	752	61.788789959167	1032
0	753	61.863044348854	1033
0	753	61.863044348854	1034
0	754	61.87971113164	1035
0	754	61.87971113164	1036
0	755	61.900448081469	1037
0	755	61.900448081469	1038
0	756	61.913475074272	1039
0	756	61.913475074272	1040
0	757	61.939920803113	1041
0	757	61.939920803113	1042
0	759	62.064404896537	1043
0	759	62.064404896537	1044
0	761	62.245712776971	1045
0	761	62.245712776971	1046
0	762	62.286454271007	1046
0	762	62.286454271007	1047
0	764	62.34389231139	1048
0	764	62.34389231139	1049
0	765	62.351798657804	1050
0	765	62.351798657804	1051
0	766	62.364636705632	1052
0	766	62.364636705632	1053
0	768	62.425466904944	1054
0	768	62.425466904944	1055
0	769	62.533877230622	1056
0	769	62.533877230622	1057
0	771	62.555392983359	1057
0	771	62.555392983359	1058
0	772	62.649258063685	1059
0	772	62.649258063685	1060
0	773	62.661763842055	1061
0	773	62.661763842055	1062
0	774	62.661876153741	1063
0	774	62.661876153741	1064
0	776	62.7931930135	1065
0	776	62.7931930135	1066
0	777	62.840298143649	1067
0	777	62.840298143649	1068
0	778	62.878900185266	1069
0	778	62.878900185266	1070
0	779	62.887688747965	1071
0	779	62.887688747965	1072
0	780	62.902512713022	1073
0	780	62.902512713022	1074
0	781	62.923900904187	1075
0	781	62.923900904187	1076
0	782	62.972057219319	1077
0	782	62.972057219319	1078
0	783	62.988142136442	1079
0	783	62.988142136442	1080
0	784	63.047564551582	1081
0	784	63.047564551582	1082
0	785	63.055297067969	1083
0	785	63.055297067969	1084
0	786	63.152003931123	1085
0	786	63.152003931123	1086
0	787	63.248202095349	1087
0	787	63.248202095349	1088
0	788	63.270361372782	1089
0	788	63.270361372782	1090
0	789	63.271270594148	1091
0	789	63.271270594148	1092