version 3
run General-2-20231011-13:57:32-6857
attr configname General
attr datetime 20231011-13:57:32
attr datetimef 20231011-135732
attr experiment General
attr inifile omnetpp.ini
attr iterationvars ""
attr iterationvarsd ""
attr iterationvarsf ""
attr measurement ""
attr network Reliability
attr processid 6857
attr repetition 2
attr replication #2
attr resultdir results
attr runnumber 2
attr seedset 2
config network Reliability
config Reliability.node[*].transmissionTime "uniform(1s, 2s)"
config Reliability.node[*].delayTime "uniform(0.01s, 0.2s)"
config Reliability.node[*].lossProbability 0
config record-eventlog true
config sim-time-limit 240s
config repeat 5

vector 0 Reliability.node[0] txVector ETV
vector 1 Reliability.node[0] rxVector ETV
vector 2 Reliability.node[1] rxVector ETV
vector 3 Reliability.node[1] txVector ETV
vector 4 Reliability.node[2] rxVector ETV
vector 5 Reliability.node[2] txVector ETV
vector 6 Reliability.node[3] rxVector ETV
vector 7 Reliability.node[3] txVector ETV
vector 8 Reliability.node[4] rxVector ETV
vector 9 Reliability.node[4] txVector ETV
vector 10 Reliability.node[5] rxVector ETV
0	0	0	1
0	1	0.092839031499	2
0	1	0.092839031499	3
0	5	0.621276908665	3
0	5	0.621276908665	4
0	10	1.741227452521	5
0	10	1.741227452521	6
0	11	2.024379895087	7
0	11	2.024379895087	8
0	15	3.208819757932	9
0	15	3.208819757932	10
0	16	3.239788620145	11
0	16	3.239788620145	12
0	19	4.755027074385	13
0	19	4.755027074385	14
0	20	5.086350111402	15
0	20	5.086350111402	16
0	21	5.936754111684	17
0	21	5.936754111684	18
0	24	6.683095419425	19
0	24	6.683095419425	20
0	25	7.091182827648	20
0	25	7.091182827648	21
0	26	7.158589278831	22
0	26	7.158589278831	23
0	29	8.323502145819	24
0	29	8.323502145819	25
0	30	8.392906868041	25
0	30	8.392906868041	26
0	33	8.574252659386	27
0	33	8.574252659386	28
0	34	8.821651074354	29
0	34	8.821651074354	30
0	36	9.832985830424	31
0	36	9.832985830424	32
0	37	10.024254489336	33
0	37	10.024254489336	34
0	38	10.258398336608	35
0	38	10.258398336608	36
0	40	10.357457950388	37
0	40	10.357457950388	38
0	41	11.106349410135	39
0	41	11.106349410135	40
0	42	11.604635187334	41
0	42	11.604635187334	42
0	43	11.631186219329	43
0	43	11.631186219329	44
0	45	12.081282971676	45
0	45	12.081282971676	46
0	46	12.994653156604	47
0	46	12.994653156604	48
0	48	13.251676072012	48
0	48	13.251676072012	49
0	52	13.319754780463	49
0	52	13.319754780463	50
0	53	13.333228256252	51
0	53	13.333228256252	52
0	54	13.374306204047	53
0	54	13.374306204047	54
0	56	13.575215502086	55
0	56	13.575215502086	56
0	57	14.317527373665	57
0	57	14.317527373665	58
0	63	14.713688071777	59
0	63	14.713688071777	60
0	64	15.069975317154	61
0	64	15.069975317154	62
0	65	15.102804706449	63
0	65	15.102804706449	64
0	66	15.157900391056	65
0	66	15.157900391056	66
0	67	15.234829513933	67
0	67	15.234829513933	68
0	68	15.680853264983	69
0	68	15.680853264983	70
0	69	16.055599677103	71
0	69	16.055599677103	72
0	70	16.383233840043	73
0	70	16.383233840043	74
0	71	16.46421547804	75
0	71	16.46421547804	76
0	73	16.749818932282	77
0	73	16.749818932282	78
0	74	16.815412774824	79
0	74	16.815412774824	80
0	80	17.324695194717	81
0	80	17.324695194717	82
0	82	17.841771922965	83
0	82	17.841771922965	84
0	83	18.039169015707	85
0	83	18.039169015707	86
0	84	18.18402031637	87
0	84	18.18402031637	88
0	85	18.264886069043	89
0	85	18.264886069043	90
0	86	18.54840458745	91
0	86	18.54840458745	92
0	89	19.264336293446	92
0	89	19.264336293446	93
0	90	19.302328585525	94
0	90	19.302328585525	95
0	91	19.465335104574	96
0	91	19.465335104574	97
0	92	19.662140061312	98
0	92	19.662140061312	99
0	93	19.673286483998	100
0	93	19.673286483998	101
0	94	19.794215748569	102
0	94	19.794215748569	103
0	96	19.876999563649	104
0	96	19.876999563649	105
0	98	20.274586334707	106
0	98	20.274586334707	107
0	99	20.395224851434	108
0	99	20.395224851434	109
0	102	20.6526216487	110
0	102	20.6526216487	111
0	104	20.691106990561	111
0	104	20.691106990561	112
0	106	20.88821086488	113
0	106	20.88821086488	114
0	107	21.06805361809	115
0	107	21.06805361809	116
0	108	21.436281767556	117
0	108	21.436281767556	118
0	109	21.542130412466	119
0	109	21.542130412466	120
0	110	21.683869210032	121
0	110	21.683869210032	122
0	111	21.709377026534	123
0	111	21.709377026534	124
0	112	21.865509269871	125
0	112	21.865509269871	126
0	114	22.265370744624	127
0	114	22.265370744624	128
0	115	22.477992856319	129
0	115	22.477992856319	130
0	116	22.479782954672	131
0	116	22.479782954672	132
0	117	22.561115540496	133
0	117	22.561115540496	134
0	118	22.881896324183	135
0	118	22.881896324183	136
0	119	22.887518993595	137
0	119	22.887518993595	138
0	120	22.979730995953	139
0	120	22.979730995953	140
0	123	23.485150731281	141
0	123	23.485150731281	142
0	124	23.685042690861	143
0	124	23.685042690861	144
0	125	23.700891571463	145
0	125	23.700891571463	146
0	126	23.964836720958	147
0	126	23.964836720958	148
0	128	24.027143988317	148
0	128	24.027143988317	149
0	130	24.051938084902	150
0	130	24.051938084902	151
0	131	24.068733023179	152
0	131	24.068733023179	153
0	132	24.111822754027	154
0	132	24.111822754027	155
0	133	24.205579526683	156
0	133	24.205579526683	157
0	135	24.817024441781	158
0	135	24.817024441781	159
0	136	25.273314765848	160
0	136	25.273314765848	161
0	137	25.362182433859	162
0	137	25.362182433859	163
0	138	25.395081501104	164
0	138	25.395081501104	165
0	139	25.42290544573	166
0	139	25.42290544573	167
0	140	25.558731088758	168
0	140	25.558731088758	169
0	141	25.742891075114	170
0	141	25.742891075114	171
0	142	25.911530844517	172
0	142	25.911530844517	173
0	143	25.992388580709	174
0	143	25.992388580709	175
0	151	26.733739057668	176
0	151	26.733739057668	177
0	155	26.840741692044	178
0	155	26.840741692044	179
0	157	26.868269262046	180
0	157	26.868269262046	181
0	159	27.038070827557	181
0	159	27.038070827557	182
0	160	27.097913700266	183
0	160	27.097913700266	184
0	162	27.131783106791	185
0	162	27.131783106791	186
0	163	27.175383371882	187
0	163	27.175383371882	188
0	165	27.420475914633	189
0	165	27.420475914633	190
0	166	27.578858011518	191
0	166	27.578858011518	192
0	167	27.807999865963	193
0	167	27.807999865963	194
0	168	27.883870728946	195
0	168	27.883870728946	196
0	169	27.933504458999	197
0	169	27.933504458999	198
0	170	28.138333487202	199
0	170	28.138333487202	200
0	171	28.282269571403	201
0	171	28.282269571403	202
0	172	28.461745031668	203
0	172	28.461745031668	204
0	173	28.624282269182	205
0	173	28.624282269182	206
0	175	28.751078117706	207
0	175	28.751078117706	208
0	176	28.757167837466	209
0	176	28.757167837466	210
0	178	28.981956382008	210
0	178	28.981956382008	211
0	179	28.990686201137	212
0	179	28.990686201137	213
0	181	29.112164446501	214
0	181	29.112164446501	215
0	184	29.143351132915	216
0	184	29.143351132915	217
0	186	29.384587078466	218
0	186	29.384587078466	219
0	187	29.581784823934	220
0	187	29.581784823934	221
0	188	29.584596649062	222
0	188	29.584596649062	223
0	190	29.879296501076	224
0	190	29.879296501076	225
0	191	30.032522834565	226
0	191	30.032522834565	227
0	192	30.047590870012	228
0	192	30.047590870012	229
0	195	30.411544997902	230
0	195	30.411544997902	231
0	196	30.475459092412	232
0	196	30.475459092412	233
0	197	30.513431962225	234
0	197	30.513431962225	235
0	200	30.549529564733	236
0	200	30.549529564733	237
0	201	30.708621018213	238
0	201	30.708621018213	239
0	202	30.730719153653	240
0	202	30.730719153653	241
0	203	30.747935918875	242
0	203	30.747935918875	243
0	204	31.059521175247	244
0	204	31.059521175247	245
0	205	31.398001221667	246
0	205	31.398001221667	247
0	206	31.452790948986	248
0	206	31.452790948986	249
0	207	31.488226656478	250
0	207	31.488226656478	251
0	208	31.531961555704	252
0	208	31.531961555704	253
0	210	32.03645296518	254
0	210	32.03645296518	255
0	211	32.220020447509	256
0	211	32.220020447509	257
0	213	32.3277220187	258
0	213	32.3277220187	259
0	214	32.374420051396	260
0	214	32.374420051396	261
0	215	32.435649315939	262
0	215	32.435649315939	263
0	216	32.438795967976	264
0	216	32.438795967976	265
0	217	32.481940269428	266
0	217	32.481940269428	267
0	218	32.496191060894	268
0	218	32.496191060894	269
0	219	32.529280444334	270
0	219	32.529280444334	271
0	220	32.728925878992	272
0	220	32.728925878992	273
0	223	33.167648069237	274
0	223	33.167648069237	275
0	224	33.367109868976	276
0	224	33.367109868976	277
0	225	33.471303363448	278
0	225	33.471303363448	279
0	227	33.501063446995	279
0	227	33.501063446995	280
0	230	33.748037161185	281
0	230	33.748037161185	282
0	232	33.776164258149	283
0	232	33.776164258149	284
0	234	33.977693905082	285
0	234	33.977693905082	286
0	235	34.030292756648	287
0	235	34.030292756648	288
0	237	34.042519385859	289
0	237	34.042519385859	290
0	239	34.17815184954	291
0	239	34.17815184954	292
0	240	34.34985873844	293
0	240	34.34985873844	294
0	241	34.622643326022	294
0	241	34.622643326022	295
0	242	34.672096602032	296
0	242	34.672096602032	297
0	243	34.712089832241	298
0	243	34.712089832241	299
0	244	34.724550199812	300
0	244	34.724550199812	301
0	248	34.916613105827	302
0	248	34.916613105827	303
0	249	34.997790944545	304
0	249	34.997790944545	305
0	250	35.16270541993	306
0	250	35.16270541993	307
0	252	35.672569026955	308
0	252	35.672569026955	309
0	253	35.674818942349	310
0	253	35.674818942349	311
0	254	35.764410399066	312
0	254	35.764410399066	313
0	256	35.772061542952	314
0	256	35.772061542952	315
0	257	35.806249069009	316
0	257	35.806249069009	317
0	258	35.828457462873	317
0	258	35.828457462873	318
0	260	35.873028066433	319
0	260	35.873028066433	320
0	261	35.947700129435	321
0	261	35.947700129435	322
0	263	36.154696404584	323
0	263	36.154696404584	324
0	264	36.379358250066	325
0	264	36.379358250066	326
0	265	36.478514166564	327
0	265	36.478514166564	328
0	267	36.553212785928	329
0	267	36.553212785928	330
0	268	36.59503461202	331
0	268	36.59503461202	332
0	270	36.862879023121	333
0	270	36.862879023121	334
0	271	36.90649643962	335
0	271	36.90649643962	336
0	272	36.938503336972	337
0	272	36.938503336972	338
0	273	37.004248959903	339
0	273	37.004248959903	340
0	274	37.029579501678	341
0	274	37.029579501678	342
0	275	37.030356965532	343
0	275	37.030356965532	344
0	276	37.101109306578	345
0	276	37.101109306578	346
0	277	37.147442975658	347
0	277	37.147442975658	348
0	279	37.199616366723	349
0	279	37.199616366723	350
0	280	37.316879848833	351
0	280	37.316879848833	352
0	281	37.613919505501	353
0	281	37.613919505501	354
0	282	37.745140059633	355
0	282	37.745140059633	356
0	283	37.860478084212	357
0	283	37.860478084212	358
0	284	37.998132858218	359
0	284	37.998132858218	360
0	285	38.247787966325	361
0	285	38.247787966325	362
0	286	38.321113566935	363
0	286	38.321113566935	364
0	287	38.331110031848	365
0	287	38.331110031848	366
0	288	38.427159868991	367
0	288	38.427159868991	368
0	290	38.487738761664	369
0	290	38.487738761664	370
0	293	38.56710636146	371
0	293	38.56710636146	372
0	296	38.794687834686	373
0	296	38.794687834686	374
0	297	38.95994855917	375
0	297	38.95994855917	376
0	299	39.004498970479	377
0	299	39.004498970479	378
0	300	39.065064876922	379
0	300	39.065064876922	380
0	301	39.19893328236	381
0	301	39.19893328236	382
0	302	39.262672498733	383
0	302	39.262672498733	384
0	303	39.29852258966	385
0	303	39.29852258966	386
0	304	39.317148877788	387
0	304	39.317148877788	388
0	306	39.385104079058	389
0	306	39.385104079058	390
0	309	39.759378353981	390
0	309	39.759378353981	391
0	313	40.003869530624	392
0	313	40.003869530624	393
0	314	40.049265930446	394
0	314	40.049265930446	395
0	315	40.123371261749	396
0	315	40.123371261749	397
0	316	40.130532397382	398
0	316	40.130532397382	399
0	317	40.217932286323	400
0	317	40.217932286323	401
0	318	40.226609612428	402
0	318	40.226609612428	403
0	319	40.233132344039	404
0	319	40.233132344039	405
0	320	40.311273602807	406
0	320	40.311273602807	407
0	321	40.376841099378	408
0	321	40.376841099378	409
0	322	40.438016295551	410
0	322	40.438016295551	411
0	323	40.446257843196	412
0	323	40.446257843196	413
0	324	40.475675492186	413
0	324	40.475675492186	414
0	325	40.506497608197	415
0	325	40.506497608197	416
0	328	40.567336515715	417
0	328	40.567336515715	418
0	330	40.717293417794	419
0	330	40.717293417794	420
0	332	41.255020083743	421
0	332	41.255020083743	422
0	333	41.274109917116	422
0	333	41.274109917116	423
0	334	41.333718828924	424
0	334	41.333718828924	425
0	338	41.385166968833	426
0	338	41.385166968833	427
0	342	41.461430105493	428
0	342	41.461430105493	429
0	344	41.54389296736	430
0	344	41.54389296736	431
0	345	41.746396223354	432
0	345	41.746396223354	433
0	346	41.776612688873	433
0	346	41.776612688873	434
0	348	41.824970990911	435
0	348	41.824970990911	436
0	350	41.928552885324	437
0	350	41.928552885324	438
0	351	41.946172829363	439
0	351	41.946172829363	440
0	353	42.00586155728	441
0	353	42.00586155728	442
0	354	42.08182615317	443
0	354	42.08182615317	444
0	356	42.184807811309	445
0	356	42.184807811309	446
0	357	42.258770055152	447
0	357	42.258770055152	448
0	358	42.299148523138	449
0	358	42.299148523138	450
0	359	42.372153044563	451
0	359	42.372153044563	452
0	360	42.405024668772	453
0	360	42.405024668772	454
0	361	42.505000870607	455
0	361	42.505000870607	456
0	362	42.71794004823	457
0	362	42.71794004823	458
0	363	42.783343831843	459
0	363	42.783343831843	460
0	364	42.805577666352	461
0	364	42.805577666352	462
0	366	42.958223918065	463
0	366	42.958223918065	464
0	367	43.047747547929	465
0	367	43.047747547929	466
0	369	43.217885112273	467
0	369	43.217885112273	468
0	370	43.255991051465	469
0	370	43.255991051465	470
0	371	43.315090513747	471
0	371	43.315090513747	472
0	372	43.385445296877	473
0	372	43.385445296877	474
0	373	43.386056867546	475
0	373	43.386056867546	476
0	374	43.415433399883	477
0	374	43.415433399883	478
0	377	43.664536970313	479
0	377	43.664536970313	480
0	379	43.774660594313	481
0	379	43.774660594313	482
0	380	43.775532625759	483
0	380	43.775532625759	484
0	381	43.865411101264	485
0	381	43.865411101264	486
0	382	44.003893844233	487
0	382	44.003893844233	488
0	383	44.026470634008	489
0	383	44.026470634008	490
0	384	44.071287750979	491
0	384	44.071287750979	492
0	385	44.1685882974	493
0	385	44.1685882974	494
0	386	44.193284167547	495
0	386	44.193284167547	496
0	387	44.25764895214	497
0	387	44.25764895214	498
0	388	44.279099410193	499
0	388	44.279099410193	500
0	389	44.355634247496	501
0	389	44.355634247496	502
0	390	44.434737958645	503
0	390	44.434737958645	504
0	391	44.566093582196	504
0	391	44.566093582196	505
0	394	44.665195895318	506
0	394	44.665195895318	507
0	395	44.719342278429	508
0	395	44.719342278429	509
0	397	44.813434332261	510
0	397	44.813434332261	511
0	398	44.971271938062	512
0	398	44.971271938062	513
0	399	45.024255877716	514
0	399	45.024255877716	515
0	401	45.053185694063	516
0	401	45.053185694063	517
0	403	45.20595543719	518
0	403	45.20595543719	519
0	404	45.208027564541	520
0	404	45.208027564541	521
0	405	45.235368569763	522
0	405	45.235368569763	523
0	407	45.426186132669	524
0	407	45.426186132669	525
0	408	45.474270096582	526
0	408	45.474270096582	527
0	409	45.494141037913	528
0	409	45.494141037913	529
0	410	45.505195627705	530
0	410	45.505195627705	531
0	411	45.517373317879	532
0	411	45.517373317879	533
0	412	45.603505856701	534
0	412	45.603505856701	535
0	413	45.687655183256	536
0	413	45.687655183256	537
0	414	45.696175319855	538
0	414	45.696175319855	539
0	415	45.818018403913	540
0	415	45.818018403913	541
0	419	46.082578610794	542
0	419	46.082578610794	543
0	420	46.220779956203	544
0	420	46.220779956203	545
0	421	46.311011083075	546
0	421	46.311011083075	547
0	422	46.414147186448	548
0	422	46.414147186448	549
0	423	46.438259829217	550
0	423	46.438259829217	551
0	424	46.521895771467	552
0	424	46.521895771467	553
0	425	46.539869619958	554
0	425	46.539869619958	555
0	426	46.633036418728	556
0	426	46.633036418728	557
0	427	46.685456456263	558
0	427	46.685456456263	559
0	428	46.79726305837	560
0	428	46.79726305837	561
0	429	46.806752409745	562
0	429	46.806752409745	563
0	430	46.806850704382	564
0	430	46.806850704382	565
0	431	46.838088866555	565
0	431	46.838088866555	566
0	432	46.890895225851	566
0	432	46.890895225851	567
0	434	46.952054178876	568
0	434	46.952054178876	569
0	439	47.130177967521	570
0	439	47.130177967521	571
0	440	47.192996538271	572
0	440	47.192996538271	573
0	441	47.22161570714	574
0	441	47.22161570714	575
0	442	47.226099700778	576
0	442	47.226099700778	577
0	443	47.396766106443	578
0	443	47.396766106443	579
0	444	47.4410515763	580
0	444	47.4410515763	581
0	445	47.464431872475	582
0	445	47.464431872475	583
0	447	47.586334893645	584
0	447	47.586334893645	585
0	449	47.684437254359	586
0	449	47.684437254359	587
0	450	47.746086043265	588
0	450	47.746086043265	589
0	451	47.846290837129	590
0	451	47.846290837129	591
0	452	47.85780417163	592
0	452	47.85780417163	593
0	454	48.042500731087	594
0	454	48.042500731087	595
0	456	48.053164177875	596
0	456	48.053164177875	597
0	460	48.169074992994	598
0	460	48.169074992994	599
0	462	48.209522404127	600
0	462	48.209522404127	601
0	463	48.228161942092	602
0	463	48.228161942092	603
0	464	48.239548114596	604
0	464	48.239548114596	605
0	465	48.274213728172	606
0	465	48.274213728172	607
0	467	48.325027226974	608
0	467	48.325027226974	609
0	470	48.689607848691	610
0	470	48.689607848691	611
0	471	48.69233043153	612
0	471	48.69233043153	613
0	472	48.710505793761	614
0	472	48.710505793761	615
0	473	48.771074136252	616
0	473	48.771074136252	617
0	474	48.81495488135	618
0	474	48.81495488135	619
0	475	48.858743990552	620
0	475	48.858743990552	621
0	476	48.869405535623	621
0	476	48.869405535623	622
0	479	49.0025636283	623
0	479	49.0025636283	624
0	480	49.077190792305	625
0	480	49.077190792305	626
0	481	49.252309084482	627
0	481	49.252309084482	628
0	482	49.346712621537	629
0	482	49.346712621537	630
0	483	49.359092958393	631
0	483	49.359092958393	632
0	484	49.377285048942	633
0	484	49.377285048942	634
0	485	49.380305422091	635
0	485	49.380305422091	636
0	486	49.398379713132	637
0	486	49.398379713132	638
0	487	49.498210755062	639
0	487	49.498210755062	640
0	488	49.50697880894	641
0	488	49.50697880894	642
0	489	49.53236030108	643
0	489	49.53236030108	644
0	490	49.590610629329	645
0	490	49.590610629329	646
0	492	49.854640028311	647
0	492	49.854640028311	648
0	493	49.983296143141	649
0	493	49.983296143141	650
0	494	50.027528369911	651
0	494	50.027528369911	652
0	495	50.071331693793	653
0	495	50.071331693793	654
0	496	50.179582849775	655
0	496	50.179582849775	656
0	497	50.272873687636	657
0	497	50.272873687636	658
0	498	50.298357030335	659
0	498	50.298357030335	660
0	499	50.503644314237	661
0	499	50.503644314237	662
0	500	50.558147435431	663
0	500	50.558147435431	664
0	501	50.579038446116	665
0	501	50.579038446116	666
0	502	50.674219587816	667
0	502	50.674219587816	668
0	504	50.711849426534	669
0	504	50.711849426534	670
0	505	50.760064098066	671
0	505	50.760064098066	672
0	506	50.771494940183	673
0	506	50.771494940183	674
0	509	50.859213948593	675
0	509	50.859213948593	676
0	510	50.932404312159	677
0	510	50.932404312159	678
0	512	51.015621816856	679
0	512	51.015621816856	680
0	513	51.042386901444	681
0	513	51.042386901444	682
0	514	51.158966706742	683
0	514	51.158966706742	684
0	515	51.163686724397	685
0	515	51.163686724397	686
0	517	51.268405491787	687
0	517	51.268405491787	688
0	518	51.410534919823	689
0	518	51.410534919823	690
0	519	51.420742796073	691
0	519	51.420742796073	692
0	520	51.4579259981	693
0	520	51.4579259981	694
0	521	51.485166747824	695
0	521	51.485166747824	696
0	522	51.49443390612	697
0	522	51.49443390612	698
0	524	51.713285937983	699
0	524	51.713285937983	700
0	525	51.765094423305	701
0	525	51.765094423305	702
0	526	51.869680649599	703
0	526	51.869680649599	704
0	527	51.870910182143	705
0	527	51.870910182143	706
0	528	51.972196985377	707
0	528	51.972196985377	708
0	530	52.00790402232	709
0	530	52.00790402232	710
0	531	52.019161995844	711
0	531	52.019161995844	712
0	532	52.028780584735	713
0	532	52.028780584735	714
0	533	52.035770752351	715
0	533	52.035770752351	716
0	535	52.17285942326	717
0	535	52.17285942326	718
0	538	52.34917109984	719
0	538	52.34917109984	720
0	539	52.377602993623	721
0	539	52.377602993623	722
0	540	52.392801679483	722
0	540	52.392801679483	723
0	541	52.448972448849	724
0	541	52.448972448849	725
0	542	52.531620035897	726
0	542	52.531620035897	727
0	543	52.664997739401	728
0	543	52.664997739401	729
0	544	52.712951424326	730
0	544	52.712951424326	731
0	545	52.778840677698	732
0	545	52.778840677698	733
0	546	52.864078646295	734
0	546	52.864078646295	735
0	547	52.884975075127	736
0	547	52.884975075127	737
0	550	53.00084890654	738
0	550	53.00084890654	739
0	552	53.018148870275	740
0	552	53.018148870275	741
0	553	53.096930213592	742
0	553	53.096930213592	743
0	554	53.178915235405	744
0	554	53.178915235405	745
0	555	53.215474180891	746
0	555	53.215474180891	747
0	556	53.224111089015	748
0	556	53.224111089015	749
0	557	53.263355246783	750
0	557	53.263355246783	751
0	558	53.297614717967	752
0	558	53.297614717967	753
0	559	53.316031213229	754
0	559	53.316031213229	755
0	561	53.474993897481	756
0	561	53.474993897481	757
0	563	53.494221999821	758
0	563	53.494221999821	759
0	565	53.509545992245	760
0	565	53.509545992245	761
0	566	53.614963157147	762
0	566	53.614963157147	763
0	568	53.713824518167	764
0	568	53.713824518167	765
0	569	53.739799948284	766
0	569	53.739799948284	767
0	570	53.765366395456	767
0	570	53.765366395456	768
0	575	53.845155713034	768
0	575	53.845155713034	769
0	577	53.882887956015	770
0	577	53.882887956015	771
0	578	53.895634411751	772
0	578	53.895634411751	773
0	580	54.060070417477	774
0	580	54.060070417477	775
0	581	54.065637622892	776
0	581	54.065637622892	777
0	584	54.262338754956	778
0	584	54.262338754956	779
0	585	54.266195516868	780
0	585	54.266195516868	781
0	586	54.279250873969	782
0	586	54.279250873969	783
0	587	54.296662142227	784
0	587	54.296662142227	785
0	589	54.321352876608	786
0	589	54.321352876608	787
0	594	54.42962107995	788
0	594	54.42962107995	789
0	596	54.536289131732	790
0	596	54.536289131732	791
0	598	54.620498383744	791
0	598	54.620498383744	792
0	599	54.6835146964	793
0	599	54.6835146964	794
0	600	54.744705043837	795
0	600	54.744705043837	796
0	601	54.751488522738	797
0	601	54.751488522738	798
0	602	54.77735137275	799
0	602	54.77735137275	800
0	603	54.777768658287	801
0	603	54.777768658287	802
0	605	55.037772889826	803
0	605	55.037772889826	804
0	606	55.046500982209	805
0	606	55.046500982209	806
0	607	55.049483183151	807
0	607	55.049483183151	808
0	608	55.070419428158	809
0	608	55.070419428158	810
0	609	55.092422047314	811
0	609	55.092422047314	812
0	610	55.144649941279	813
0	610	55.144649941279	814
0	611	55.167881857722	815
0	611	55.167881857722	816
0	612	55.172824171183	817
0	612	55.172824171183	818
0	614	55.318032681365	819
0	614	55.318032681365	820
0	615	55.330778274753	821
0	615	55.330778274753	822
0	616	55.331802697736	823
0	616	55.331802697736	824
0	617	55.427240022942	825
0	617	55.427240022942	826
0	618	55.50507320187	827
0	618	55.50507320187	828
0	619	55.505521228073	829
0	619	55.505521228073	830
0	620	55.607130099513	831
0	620	55.607130099513	832
0	621	55.608801330349	833
0	621	55.608801330349	834
0	622	55.660809724918	835
0	622	55.660809724918	836
0	623	55.661848766494	837
0	623	55.661848766494	838
0	624	55.730171745889	839
0	624	55.730171745889	840
0	626	55.790353332055	841
0	626	55.790353332055	842
0	627	55.794828367997	843
0	627	55.794828367997	844
0	628	55.796733004206	845
0	628	55.796733004206	846
0	629	55.876376652277	847
0	629	55.876376652277	848
0	631	55.938608210621	849
0	631	55.938608210621	850
0	633	56.069973159452	851
0	633	56.069973159452	852
0	634	56.222092190674	853
0	634	56.222092190674	854
0	635	56.252133688502	855
0	635	56.252133688502	856
0	636	56.395626524507	857
0	636	56.395626524507	858
0	637	56.406705880654	859
0	637	56.406705880654	860
0	638	56.41613610853	861
0	638	56.41613610853	862
0	640	56.484685288496	863
0	640	56.484685288496	864
0	641	56.49431280151	865
0	641	56.49431280151	866
0	642	56.618935511726	867
0	642	56.618935511726	868
0	643	56.663297267	869
0	643	56.663297267	870
0	644	56.70036164243	871
0	644	56.70036164243	872
0	646	56.782846404707	873
0	646	56.782846404707	874
0	647	56.876136787972	875
0	647	56.876136787972	876
0	648	56.884555719325	877
0	648	56.884555719325	878
0	649	56.952641651612	879
0	649	56.952641651612	880
0	651	57.049792668202	881
0	651	57.049792668202	882
0	652	57.059991940251	883
0	652	57.059991940251	884
0	653	57.0986568547	885
0	653	57.0986568547	886
0	654	57.117022570415	887
0	654	57.117022570415	888
0	655	57.186219922518	889
0	655	57.186219922518	890
0	656	57.196921613636	891
0	656	57.196921613636	892
0	657	57.21298258475	893
0	657	57.21298258475	894
0	658	57.218524257075	895
0	658	57.218524257075	896
0	659	57.256265612565	897
0	659	57.256265612565	898
0	663	57.430377340834	899
0	663	57.430377340834	900
0	664	57.477688568787	900
0	664	57.477688568787	901
0	665	57.565575072528	902
0	665	57.565575072528	903
0	667	57.575854745548	904
0	667	57.575854745548	905
0	669	57.666123811553	906
0	669	57.666123811553	907
0	670	57.791951779162	908
0	670	57.791951779162	909
0	673	58.015455976174	910
0	673	58.015455976174	911
0	674	58.069266444687	912
0	674	58.069266444687	913
0	675	58.075545612606	914
0	675	58.075545612606	915
0	677	58.166470849499	916
0	677	58.166470849499	917
0	678	58.170513190902	918
0	678	58.170513190902	919
0	679	58.209318142344	920
0	679	58.209318142344	921
0	680	58.217157248287	922
0	680	58.217157248287	923
0	682	58.221389822447	924
0	682	58.221389822447	925
0	684	58.247643413951	926
0	684	58.247643413951	927
0	685	58.248675423951	928
0	685	58.248675423951	929
0	687	58.325582113492	930
0	687	58.325582113492	931
0	688	58.355016050695	932
0	688	58.355016050695	933
0	689	58.361318874873	934
0	689	58.361318874873	935
0	690	58.378257134799	936
0	690	58.378257134799	937
0	692	58.493205032656	938
0	692	58.493205032656	939
0	693	58.589968971688	940
0	693	58.589968971688	941
0	694	58.663306067816	942
0	694	58.663306067816	943
0	695	58.706329174926	944
0	695	58.706329174926	945
0	696	58.7106112788	946
0	696	58.7106112788	947
0	697	58.728763490943	948
0	697	58.728763490943	949
0	698	58.831401909972	950
0	698	58.831401909972	951
0	699	58.837129244978	952
0	699	58.837129244978	953
0	700	58.861367134704	954
0	700	58.861367134704	955
0	701	58.944622738173	956
0	701	58.944622738173	957
0	704	59.256246231118	958
0	704	59.256246231118	959
0	705	59.270434163762	960
0	705	59.270434163762	961
0	707	59.315668819347	962
0	707	59.315668819347	963
0	710	59.362427939619	964
0	710	59.362427939619	965
0	711	59.369002556896	966
0	711	59.369002556896	967
0	712	59.422790308143	967
0	712	59.422790308143	968
0	713	59.436068312148	969
0	713	59.436068312148	970
0	714	59.467835289936	971
0	714	59.467835289936	972
0	715	59.479465647983	973
0	715	59.479465647983	974
0	716	59.491953938693	975
0	716	59.491953938693	976
0	717	59.548818163327	977
0	717	59.548818163327	978
0	718	59.5968935078	979
0	718	59.5968935078	980
0	719	59.620900386557	981
0	719	59.620900386557	982
0	720	59.628648901356	983
0	720	59.628648901356	984
0	721	59.697835993322	985
0	721	59.697835993322	986
0	722	59.755376243378	987
0	722	59.755376243378	988
0	723	59.803441742578	989
0	723	59.803441742578	990
0	724	59.829881924773	991
0	724	59.829881924773	992
0	725	59.842078810818	993
0	725	59.842078810818	994
0	726	59.907809791297	995
0	726	59.907809791297	996
0	728	59.989999696265	997
0	728	59.989999696265	998
0	729	60.039019084548	999
0	729	60.039019084548	1000
0	730	60.108853811053	1001
0	730	60.108853811053	1002
0	731	60.186139672641	1003
0	731	60.186139672641	1004
0	732	60.215645333173	1005
0	732	60.215645333173	1006
0	736	60.555645723632	1007
0	736	60.555645723632	1008
0	738	60.618990937943	1008
0	738	60.618990937943	1009
0	739	60.62314531752	1010
0	739	60.62314531752	1011
0	742	60.673985135141	1011
0	742	60.673985135141	1012
0	743	60.6944321831	1013
0	743	60.6944321831	1014
0	744	60.701614623782	1015
0	744	60.701614623782	1016
0	745	60.758569450369	1017
0	745	60.758569450369	1018
0	746	60.77832424779	1019
0	746	60.77832424779	1020
0	747	60.915364565004	1021
0	747	60.915364565004	1022
0	748	60.935812018928	1023
0	748	60.935812018928	1024
0	749	60.948855418714	1025
0	749	60.948855418714	1026
0	750	60.95291132503	1027
0	750	60.95291132503	1028
0	752	61.019440002068	1029
0	752	61.019440002068	1030
0	754	61.036834914356	1031
0	754	61.036834914356	1032
0	756	61.091042773103	1032
0	756	61.091042773103	1033
0	757	61.095110826728	1033
0	757	61.095110826728	1034
0	758	61.097731333736	1035
0	758	61.097731333736	1036
0	760	61.13815493029	1037
0	760	61.13815493029	1038
0	761	61.138671986443	1039
0	761	61.138671986443	1040
0	764	61.1730511285	1041
0	764	61.1730511285	1042
0	767	61.244408572404	1043
0	767	61.244408572404	1044
0	768	61.260414229751	1045
0	768	61.260414229751	1046
0	769	61.285532816421	1047
0	769	61.285532816421	1048
0	770	61.299581810325	1049
0	770	61.299581810325	1050
0	771	61.323304922898	1051
0	771	61.323304922898	1052
0	772	61.342610340059	1053
0	772	61.342610340059	1054
0	773	61.343435714499	1055
0	773	61.343435714499	1056
0	777	61.573493477723	1057
0	777	61.573493477723	1058
0	778	61.644011756868	1059
0	778	61.644011756868	1060
0	779	61.675060190846	1061
0	779	61.675060190846	1062
0	780	61.7106832139	1063
0	780	61.7106832139	1064
0	781	61.765378011533	1065
0	781	61.765378011533	1066
0	782	61.784079034799	1067
0	782	61.784079034799	1068
0	783	61.81263705146	1069
0	783	61.81263705146	1070
0	784	61.951535779164	1071
0	784	61.951535779164	1072
0	785	61.970587384585	1073
0	785	61.970587384585	1074
0	786	61.98368051908	1075
0	786	61.98368051908	1076
0	787	61.997645881956	1077
0	787	61.997645881956	1078
0	789	62.373018347261	1079
0	789	62.373018347261	1080
0	790	62.387048276239	1081
0	790	62.387048276239	1082
0	791	62.434198312698	1083
0	791	62.434198312698	1084
0	792	62.435995628035	1085
0	792	62.435995628035	1086
0	793	62.467541519206	1087
0	793	62.467541519206	1088
0	794	62.498465268253	1089
0	794	62.498465268253	1090
0	795	62.606601643237	1091
0	795	62.606601643237	1092