version 3
run General-0-20231017-19:19:35-8222
attr configname General
attr datetime 20231017-19:19:35
attr datetimef 20231017-191935
attr experiment General
attr inifile omnetpp.ini
attr iterationvars ""
attr iterationvarsd ""
attr iterationvarsf ""
attr measurement ""
attr network Reliability
attr processid 8222
attr repetition 0
attr replication #0
attr resultdir results
attr runnumber 0
attr seedset 0
config network Reliability
config Reliability.node[*].transmissionTime "uniform(1s, 2s)"
config Reliability.node[*].delayTime "uniform(0.01s, 0.2s)"
config Reliability.node[*].lossProbability 0.0
config record-eventlog true
config sim-time-limit 240s
config repeat 5

vector 0 Reliability.node[0] txVector ETV
vector 1 Reliability.node[1] txVector ETV
vector 2 Reliability.node[1] rxVector ETV
vector 3 Reliability.node[3] txVector ETV
vector 4 Reliability.node[3] rxVector ETV
vector 5 Reliability.node[0] rxVector ETV
vector 6 Reliability.node[2] txVector ETV
vector 7 Reliability.node[2] rxVector ETV
vector 8 Reliability.node[4] txVector ETV
vector 9 Reliability.node[4] rxVector ETV
vector 10 Reliability.node[5] rxVector ETV
0	1	0.114274565438	1
0	1	0.114274565438	1
0	1	0.114274565438	1
0	13	1.82946393041	2
0	13	1.82946393041	2
0	13	1.82946393041	2
0	25	3.397508494165	3
0	25	3.397508494165	3
0	25	3.397508494165	3
0	37	5.178037669817	4
0	37	5.178037669817	4
0	37	5.178037669817	4
0	49	6.196827467838	5
0	49	6.196827467838	5
0	49	6.196827467838	5
0	61	7.867465341538	6
0	61	7.867465341538	6
0	61	7.867465341538	6
0	73	9.5205736636	7
0	73	9.5205736636	7
0	73	9.5205736636	7
0	85	10.617674934752	8
0	85	10.617674934752	8
0	85	10.617674934752	8
0	97	11.913815134046	9
0	97	11.913815134046	9
0	97	11.913815134046	9
0	109	13.843111331881	10
0	109	13.843111331881	10
0	109	13.843111331881	10
0	121	15.520927871185	11
0	121	15.520927871185	11
0	121	15.520927871185	11
0	133	17.367336537297	12
0	133	17.367336537297	12
0	133	17.367336537297	12
0	145	19.323420177055	13
0	145	19.323420177055	13
0	145	19.323420177055	13
0	157	20.621702504884	14
0	157	20.621702504884	14
0	157	20.621702504884	14
0	169	22.427896496681	15
0	169	22.427896496681	15
0	169	22.427896496681	15
0	181	24.275904723983	16
0	181	24.275904723983	16
0	181	24.275904723983	16
0	193	25.287618805496	17
0	193	25.287618805496	17
0	193	25.287618805496	17
0	205	27.215700098155	18
0	205	27.215700098155	18
0	205	27.215700098155	18
0	217	28.945822124444	19
0	217	28.945822124444	19
0	217	28.945822124444	19
0	229	30.380238753352	20
0	229	30.380238753352	20
0	229	30.380238753352	20
0	241	32.370577699346	21
0	241	32.370577699346	21
0	241	32.370577699346	21
0	253	34.243228356894	22
0	253	34.243228356894	22
0	253	34.243228356894	22
0	265	35.761429068241	23
0	265	35.761429068241	23
0	265	35.761429068241	23
0	277	36.89349717794	24
0	277	36.89349717794	24
0	277	36.89349717794	24
0	289	38.797216917463	25
0	289	38.797216917463	25
0	289	38.797216917463	25
0	301	40.58236982774	26
0	301	40.58236982774	26
0	301	40.58236982774	26
0	313	42.523747532703	27
0	313	42.523747532703	27
0	313	42.523747532703	27
0	325	44.002117839251	28
0	325	44.002117839251	28
0	325	44.002117839251	28
0	337	45.975037329439	29
0	337	45.975037329439	29
0	337	45.975037329439	29
0	349	46.986464784555	30
0	349	46.986464784555	30
0	349	46.986464784555	30
0	361	48.256792688118	31
0	361	48.256792688118	31
0	361	48.256792688118	31
0	373	50.045338202575	32
0	373	50.045338202575	32
0	373	50.045338202575	32
0	385	51.505194081301	33
0	385	51.505194081301	33
0	385	51.505194081301	33
0	397	53.015210934524	34
0	397	53.015210934524	34
0	397	53.015210934524	34
0	409	54.897252349491	35
0	409	54.897252349491	35
0	409	54.897252349491	35
0	421	56.057791171903	36
0	421	56.057791171903	36
0	421	56.057791171903	36
0	433	57.873314996558	37
0	433	57.873314996558	37
0	433	57.873314996558	37
0	445	59.23002188637	38
0	445	59.23002188637	38
0	445	59.23002188637	38
0	457	60.844486593111	39
0	457	60.844486593111	39
0	457	60.844486593111	39
0	469	62.462966856855	40
0	469	62.462966856855	40
0	469	62.462966856855	40
0	481	63.704385475098	41
0	481	63.704385475098	41
0	481	63.704385475098	41
0	493	65.533042390906	42
0	493	65.533042390906	42
0	493	65.533042390906	42
0	505	66.782462433987	43
0	505	66.782462433987	43
0	505	66.782462433987	43
0	517	68.53125068646	44
0	517	68.53125068646	44
0	517	68.53125068646	44
0	529	70.471460379968	45
0	529	70.471460379968	45
0	529	70.471460379968	45
0	541	72.075578185339	46
0	541	72.075578185339	46
0	541	72.075578185339	46
0	553	73.531022331752	47
0	553	73.531022331752	47
0	553	73.531022331752	47
0	565	74.579712622408	48
0	565	74.579712622408	48
0	565	74.579712622408	48
0	577	76.255955100833	49
0	577	76.255955100833	49
0	577	76.255955100833	49
0	589	77.661897423752	50
0	589	77.661897423752	50
0	589	77.661897423752	50
0	601	78.664600638049	51
0	601	78.664600638049	51
0	601	78.664600638049	51
0	613	79.761843562434	52
0	613	79.761843562434	52
0	613	79.761843562434	52
0	625	81.74242369582	53
0	625	81.74242369582	53
0	625	81.74242369582	53
0	637	83.131558375042	54
0	637	83.131558375042	54
0	637	83.131558375042	54
0	649	84.828021519892	55
0	649	84.828021519892	55
0	649	84.828021519892	55
0	661	86.825983772129	56
0	661	86.825983772129	56
0	661	86.825983772129	56
0	673	88.109983751392	57
0	673	88.109983751392	57
0	673	88.109983751392	57
0	685	89.769160226993	58
0	685	89.769160226993	58
0	685	89.769160226993	58
0	697	91.104658401878	59
0	697	91.104658401878	59
0	697	91.104658401878	59
0	709	92.850056474171	60
0	709	92.850056474171	60
0	709	92.850056474171	60
0	721	94.347833378314	61
0	721	94.347833378314	61
0	721	94.347833378314	61
0	733	96.204958296454	62
0	733	96.204958296454	62
0	733	96.204958296454	62
0	745	97.819485991801	63
0	745	97.819485991801	63
0	745	97.819485991801	63
0	757	99.556740234679	64
0	757	99.556740234679	64
0	757	99.556740234679	64
0	769	101.080924089838	65
0	769	101.080924089838	65
0	769	101.080924089838	65
0	781	102.180938152204	66
0	781	102.180938152204	66
0	781	102.180938152204	66
0	793	103.613922357865	67
0	793	103.613922357865	67
0	793	103.613922357865	67
0	805	105.601271114152	68
0	805	105.601271114152	68
0	805	105.601271114152	68
0	817	106.718651410498	69
0	817	106.718651410498	69
0	817	106.718651410498	69
0	829	108.226286955949	70
0	829	108.226286955949	70
0	829	108.226286955949	70
0	841	110.085064424042	71
0	841	110.085064424042	71
0	841	110.085064424042	71
0	853	111.329953903405	72
0	853	111.329953903405	72
0	853	111.329953903405	72
0	865	113.172808795542	73
0	865	113.172808795542	73
0	865	113.172808795542	73
0	877	114.290334439444	74
0	877	114.290334439444	74
0	877	114.290334439444	74
0	889	116.099699410217	75
0	889	116.099699410217	75
0	889	116.099699410217	75
0	901	117.312133770276	76
0	901	117.312133770276	76
0	901	117.312133770276	76
0	913	118.527531976419	77
0	913	118.527531976419	77
0	913	118.527531976419	77
0	925	119.576880922614	78
0	925	119.576880922614	78
0	925	119.576880922614	78
0	937	120.950391931765	79
0	937	120.950391931765	79
0	937	120.950391931765	79
0	949	122.309387209432	80
0	949	122.309387209432	80
0	949	122.309387209432	80
0	961	124.208348303174	81
0	961	124.208348303174	81
0	961	124.208348303174	81
0	973	125.498261751679	82
0	973	125.498261751679	82
0	973	125.498261751679	82
0	985	126.94663092897	83
0	985	126.94663092897	83
0	985	126.94663092897	83
0	997	128.006014113386	84
0	997	128.006014113386	84
0	997	128.006014113386	84
0	1009	129.869484759473	85
0	1009	129.869484759473	85
0	1009	129.869484759473	85
0	1021	131.696346361727	86
0	1021	131.696346361727	86
0	1021	131.696346361727	86
0	1033	132.994533718169	87
0	1033	132.994533718169	87
0	1033	132.994533718169	87
0	1045	134.33051126341	88
0	1045	134.33051126341	88
0	1045	134.33051126341	88
0	1057	136.184117303534	89
0	1057	136.184117303534	89
0	1057	136.184117303534	89
0	1069	138.06329063892	90
0	1069	138.06329063892	90
0	1069	138.06329063892	90
0	1081	139.985009708513	91
0	1081	139.985009708513	91
0	1081	139.985009708513	91
0	1093	141.307839245839	92
0	1093	141.307839245839	92
0	1093	141.307839245839	92
0	1105	142.783665437089	93
0	1105	142.783665437089	93
0	1105	142.783665437089	93
0	1117	144.240369064571	94
0	1117	144.240369064571	94
0	1117	144.240369064571	94
0	1129	146.018645230518	95
0	1129	146.018645230518	95
0	1129	146.018645230518	95
0	1141	147.368638078519	96
0	1141	147.368638078519	96
0	1141	147.368638078519	96
0	1153	149.020762675046	97
0	1153	149.020762675046	97
0	1153	149.020762675046	97
0	1165	150.81199010585	98
0	1165	150.81199010585	98
0	1165	150.81199010585	98
0	1177	152.670992747019	99
0	1177	152.670992747019	99
0	1177	152.670992747019	99
0	1189	154.191670540324	100
0	1189	154.191670540324	100
0	1189	154.191670540324	100
0	1201	155.545895361411	101
0	1201	155.545895361411	101
0	1201	155.545895361411	101
0	1213	157.475187033717	102
0	1213	157.475187033717	102
0	1213	157.475187033717	102
0	1225	158.83294491989	103
0	1225	158.83294491989	103
0	1225	158.83294491989	103
0	1237	159.943467216868	104
0	1237	159.943467216868	104
0	1237	159.943467216868	104
0	1249	161.581857324181	105
0	1249	161.581857324181	105
0	1249	161.581857324181	105
0	1261	162.978883161278	106
0	1261	162.978883161278	106
0	1261	162.978883161278	106
0	1273	164.295433366041	107
0	1273	164.295433366041	107
0	1273	164.295433366041	107
0	1285	165.730964903555	108
0	1285	165.730964903555	108
0	1285	165.730964903555	108
0	1297	167.675590619047	109
0	1297	167.675590619047	109
0	1297	167.675590619047	109
0	1309	169.54245153053	110
0	1309	169.54245153053	110
0	1309	169.54245153053	110
0	1321	170.850979485151	111
0	1321	170.850979485151	111
0	1321	170.850979485151	111
0	1333	172.667400515939	112
0	1333	172.667400515939	112
0	1333	172.667400515939	112
0	1345	174.660067508065	113
0	1345	174.660067508065	113
0	1345	174.660067508065	113
0	1357	176.017706537687	114
0	1357	176.017706537687	114
0	1357	176.017706537687	114
0	1369	177.823168978163	115
0	1369	177.823168978163	115
0	1369	177.823168978163	115
0	1381	178.942085920203	116
0	1381	178.942085920203	116
0	1381	178.942085920203	116
0	1393	180.803676882827	117
0	1393	180.803676882827	117
0	1393	180.803676882827	117
0	1405	182.104328044991	118
0	1405	182.104328044991	118
0	1405	182.104328044991	118
0	1417	183.155381110099	119
0	1417	183.155381110099	119
0	1417	183.155381110099	119
0	1429	184.255614546428	120
0	1429	184.255614546428	120
0	1429	184.255614546428	120
0	1441	185.967484997653	121
0	1441	185.967484997653	121
0	1441	185.967484997653	121
0	1453	187.00461460354	122
0	1453	187.00461460354	122
0	1453	187.00461460354	122
0	1465	188.987059485933	123
0	1465	188.987059485933	123
0	1465	188.987059485933	123
0	1477	190.936339390066	124
0	1477	190.936339390066	124
0	1477	190.936339390066	124
0	1489	192.513929481453	125
0	1489	192.513929481453	125
0	1489	192.513929481453	125
0	1501	194.253561982254	126
0	1501	194.253561982254	126
0	1501	194.253561982254	126
0	1513	195.337353341582	127
0	1513	195.337353341582	127
0	1513	195.337353341582	127
0	1525	196.682209928355	128
0	1525	196.682209928355	128
0	1525	196.682209928355	128
0	1537	198.569493081023	129
0	1537	198.569493081023	129
0	1537	198.569493081023	129
0	1549	200.106663211317	130
0	1549	200.106663211317	130
0	1549	200.106663211317	130
0	1561	201.156162958195	131
0	1561	201.156162958195	131
0	1561	201.156162958195	131
0	1573	202.262845404515	132
0	1573	202.262845404515	132
0	1573	202.262845404515	132
0	1585	203.659859072952	133
0	1585	203.659859072952	133
0	1585	203.659859072952	133
0	1597	205.576278085657	134
0	1597	205.576278085657	134
0	1597	205.576278085657	134
0	1609	207.345325084705	135
0	1609	207.345325084705	135
0	1609	207.345325084705	135
0	1621	208.819509898381	136
0	1621	208.819509898381	136
0	1621	208.819509898381	136
0	1633	210.351004179403	137
0	1633	210.351004179403	137
0	1633	210.351004179403	137
0	1645	211.463254165439	138
0	1645	211.463254165439	138
0	1645	211.463254165439	138
0	1657	213.443720627878	139
0	1657	213.443720627878	139
0	1657	213.443720627878	139
0	1669	215.422990862815	140
0	1669	215.422990862815	140
0	1669	215.422990862815	140
0	1681	216.528085558977	141
0	1681	216.528085558977	141
0	1681	216.528085558977	141
0	1693	218.229871324332	142
0	1693	218.229871324332	142
0	1693	218.229871324332	142
0	1705	220.077179012423	143
0	1705	220.077179012423	143
0	1705	220.077179012423	143
0	1717	221.591659350622	144
0	1717	221.591659350622	144
0	1717	221.591659350622	144
0	1729	222.61135099416	145
0	1729	222.61135099416	145
0	1729	222.61135099416	145
0	1741	224.198068160632	146
0	1741	224.198068160632	146
0	1741	224.198068160632	146
0	1753	225.650721690686	147
0	1753	225.650721690686	147
0	1753	225.650721690686	147
0	1765	226.757217009155	148
0	1765	226.757217009155	148
0	1765	226.757217009155	148
0	1777	227.938839404447	149
0	1777	227.938839404447	149
0	1777	227.938839404447	149
0	1789	229.716878251242	150
0	1789	229.716878251242	150
0	1789	229.716878251242	150
0	1801	230.902191174752	151
0	1801	230.902191174752	151
0	1801	230.902191174752	151
0	1813	232.055288070184	152
0	1813	232.055288070184	152
0	1813	232.055288070184	152
0	1825	233.651472511771	153
0	1825	233.651472511771	153
0	1825	233.651472511771	153
0	1837	235.028741439874	154
0	1837	235.028741439874	154
0	1837	235.028741439874	154
0	1849	236.272898472217	155
0	1849	236.272898472217	155
0	1849	236.272898472217	155
0	1861	237.969117674348	156
0	1861	237.969117674348	156
0	1861	237.969117674348	156
0	1873	239.385070988978	157
0	1873	239.385070988978	157
0	1873	239.385070988978	157
1	2	0.336915042552	1
1	2	0.336915042552	2
1	2	0.336915042552	3
1	14	2.030659592976	4
1	14	2.030659592976	5
1	14	2.030659592976	6
1	26	3.606399215458	7
1	26	3.606399215458	8
1	26	3.606399215458	9
1	38	5.313729122737	10
1	38	5.313729122737	11
1	38	5.313729122737	12
1	50	6.430924073956	13
1	50	6.430924073956	14
1	50	6.430924073956	15
1	62	8.166572259003	16
1	62	8.166572259003	17
1	62	8.166572259003	18
1	74	9.633152275556	19
1	74	9.633152275556	20
1	74	9.633152275556	21
1	86	10.795969383858	22
1	86	10.795969383858	23
1	86	10.795969383858	24
1	98	12.039606506507	25
1	98	12.039606506507	26
1	98	12.039606506507	27
1	110	13.980935266902	28
1	110	13.980935266902	29
1	110	13.980935266902	30
1	122	15.716275440248	31
1	122	15.716275440248	32
1	122	15.716275440248	33
1	134	17.578645725117	34
1	134	17.578645725117	35
1	134	17.578645725117	36
1	146	19.452964215448	37
1	146	19.452964215448	38
1	146	19.452964215448	39
1	158	20.781167281311	40
1	158	20.781167281311	41
1	158	20.781167281311	42
1	170	22.685916190135	43
1	170	22.685916190135	44
1	170	22.685916190135	45
1	182	24.429745768888	46
1	182	24.429745768888	47
1	182	24.429745768888	48
1	194	25.577001558184	49
1	194	25.577001558184	50
1	194	25.577001558184	51
1	206	27.468360505074	52
1	206	27.468360505074	53
1	206	27.468360505074	54
1	218	29.066541608018	55
1	218	29.066541608018	56
1	218	29.066541608018	57
1	230	30.626031170587	58
1	230	30.626031170587	59
1	230	30.626031170587	60
1	242	32.480588215915	61
1	242	32.480588215915	62
1	242	32.480588215915	63
1	254	34.535144019532	64
1	254	34.535144019532	65
1	254	34.535144019532	66
1	266	35.924038881152	67
1	266	35.924038881152	68
1	266	35.924038881152	69
1	278	37.021090448077	70
1	278	37.021090448077	71
1	278	37.021090448077	72
1	290	39.065494155453	73
1	290	39.065494155453	74
1	290	39.065494155453	75
1	302	40.785900793311	76
1	302	40.785900793311	77
1	302	40.785900793311	78
1	314	42.820903665987	79
1	314	42.820903665987	80
1	314	42.820903665987	81
1	326	44.220267882999	82
1	326	44.220267882999	83
1	326	44.220267882999	84
1	338	46.087687525093	85
1	338	46.087687525093	86
1	338	46.087687525093	87
1	350	47.114809211278	88
1	350	47.114809211278	89
1	350	47.114809211278	90
1	362	48.463567680616	91
1	362	48.463567680616	92
1	362	48.463567680616	93
1	374	50.303384677032	94
1	374	50.303384677032	95
1	374	50.303384677032	96
1	386	51.720915672321	97
1	386	51.720915672321	98
1	386	51.720915672321	99
1	398	53.298214431105	100
1	398	53.298214431105	101
1	398	53.298214431105	102
1	410	55.152975415653	103
1	410	55.152975415653	104
1	410	55.152975415653	105
1	422	56.356352780969	106
1	422	56.356352780969	107
1	422	56.356352780969	108
1	434	58.067651945714	109
1	434	58.067651945714	110
1	434	58.067651945714	111
1	446	59.385084811557	112
1	446	59.385084811557	113
1	446	59.385084811557	114
1	458	61.140998132353	115
1	458	61.140998132353	116
1	458	61.140998132353	117
1	470	62.586351822816	118
1	470	62.586351822816	119
1	470	62.586351822816	120
1	482	63.998477051911	121
1	482	63.998477051911	122
1	482	63.998477051911	123
1	494	65.688936071606	124
1	494	65.688936071606	125
1	494	65.688936071606	126
1	506	66.954099357636	127
1	506	66.954099357636	128
1	506	66.954099357636	129
1	518	68.739982823344	130
1	518	68.739982823344	131
1	518	68.739982823344	132
1	530	70.653342347164	133
1	530	70.653342347164	134
1	530	70.653342347164	135
1	542	72.237449877002	136
1	542	72.237449877002	137
1	542	72.237449877002	138
1	554	73.673051848731	139
1	554	73.673051848731	140
1	554	73.673051848731	141
1	566	74.811127825477	142
1	566	74.811127825477	143
1	566	74.811127825477	144
1	578	76.461469914287	145
1	578	76.461469914287	146
1	578	76.461469914287	147
1	590	77.845782236057	148
1	590	77.845782236057	149
1	590	77.845782236057	150
1	602	78.949311611099	151
1	602	78.949311611099	152
1	602	78.949311611099	153
1	614	79.948684300504	154
1	614	79.948684300504	155
1	614	79.948684300504	156
1	626	81.912556400532	157
1	626	81.912556400532	158
1	626	81.912556400532	159
1	638	83.310206453647	160
1	638	83.310206453647	161
1	638	83.310206453647	162
1	650	84.998928931018	163
1	650	84.998928931018	164
1	650	84.998928931018	165
1	662	87.012595199333	166
1	662	87.012595199333	167
1	662	87.012595199333	168
1	674	88.376110278866	169
1	674	88.376110278866	170
1	674	88.376110278866	171
1	686	89.930883806224	172
1	686	89.930883806224	173
1	686	89.930883806224	174
1	698	91.392587340159	175
1	698	91.392587340159	176
1	698	91.392587340159	177
1	710	92.977200740764	178
1	710	92.977200740764	179
1	710	92.977200740764	180
1	722	94.476825495638	181
1	722	94.476825495638	182
1	722	94.476825495638	183
1	734	96.386161310003	184
1	734	96.386161310003	185
1	734	96.386161310003	186
1	746	98.036185675276	187
1	746	98.036185675276	188
1	746	98.036185675276	189
1	758	99.848818632738	190
1	758	99.848818632738	191
1	758	99.848818632738	192
1	770	101.192575174408	193
1	770	101.192575174408	194
1	770	101.192575174408	195
1	782	102.426394254448	196
1	782	102.426394254448	197
1	782	102.426394254448	198
1	794	103.760538772541	199
1	794	103.760538772541	200
1	794	103.760538772541	201
1	806	105.873123318237	202
1	806	105.873123318237	203
1	806	105.873123318237	204
1	818	106.891043410204	205
1	818	106.891043410204	206
1	818	106.891043410204	207
1	830	108.445577324678	208
1	830	108.445577324678	209
1	830	108.445577324678	210
1	842	110.238967734124	211
1	842	110.238967734124	212
1	842	110.238967734124	213
1	854	111.497110449078	214
1	854	111.497110449078	215
1	854	111.497110449078	216
1	866	113.460516154711	217
1	866	113.460516154711	218
1	866	113.460516154711	219
1	878	114.534312471683	220
1	878	114.534312471683	221
1	878	114.534312471683	222
1	890	116.225160037405	223
1	890	116.225160037405	224
1	890	116.225160037405	225
1	902	117.438900935844	226
1	902	117.438900935844	227
1	902	117.438900935844	228
1	914	118.652743584261	229
1	914	118.652743584261	230
1	914	118.652743584261	231
1	926	119.767026574736	232
1	926	119.767026574736	233
1	926	119.767026574736	234
1	938	121.084652774211	235
1	938	121.084652774211	236
1	938	121.084652774211	237
1	950	122.563928486591	238
1	950	122.563928486591	239
1	950	122.563928486591	240
1	962	124.354401490744	241
1	962	124.354401490744	242
1	962	124.354401490744	243
1	974	125.670068144763	244
1	974	125.670068144763	245
1	974	125.670068144763	246
1	986	127.106908640412	247
1	986	127.106908640412	248
1	986	127.106908640412	249
1	998	128.189439120022	250
1	998	128.189439120022	251
1	998	128.189439120022	252
1	1010	130.096227991001	253
1	1010	130.096227991001	254
1	1010	130.096227991001	255
1	1022	131.854124481598	256
1	1022	131.854124481598	257
1	1022	131.854124481598	258
1	1034	133.179095525889	259
1	1034	133.179095525889	260
1	1034	133.179095525889	261
1	1046	134.583750375497	262
1	1046	134.583750375497	263
1	1046	134.583750375497	264
1	1058	136.347338914954	265
1	1058	136.347338914954	266
1	1058	136.347338914954	267
1	1070	138.271139291682	268
1	1070	138.271139291682	269
1	1070	138.271139291682	270
1	1082	140.101100276598	271
1	1082	140.101100276598	272
1	1082	140.101100276598	273
1	1094	141.487425667137	274
1	1094	141.487425667137	275
1	1094	141.487425667137	276
1	1106	143.044713115872	277
1	1106	143.044713115872	278
1	1106	143.044713115872	279
1	1118	144.375819353853	280
1	1118	144.375819353853	281
1	1118	144.375819353853	282
1	1130	146.214187880238	283
1	1130	146.214187880238	284
1	1130	146.214187880238	285
1	1142	147.516548689266	286
1	1142	147.516548689266	287
1	1142	147.516548689266	288
1	1154	149.30736295993	289
1	1154	149.30736295993	290
1	1154	149.30736295993	291
1	1166	151.045723342893	292
1	1166	151.045723342893	293
1	1166	151.045723342893	294
1	1178	152.919783577484	295
1	1178	152.919783577484	296
1	1178	152.919783577484	297
1	1190	154.331668475968	298
1	1190	154.331668475968	299
1	1190	154.331668475968	300
1	1202	155.70648931856	301
1	1202	155.70648931856	302
1	1202	155.70648931856	303
1	1214	157.624836865861	304
1	1214	157.624836865861	305
1	1214	157.624836865861	306
1	1226	158.989547729121	307
1	1226	158.989547729121	308
1	1226	158.989547729121	309
1	1238	160.223284040283	310
1	1238	160.223284040283	311
1	1238	160.223284040283	312
1	1250	161.726337825494	313
1	1250	161.726337825494	314
1	1250	161.726337825494	315
1	1262	163.238728744039	316
1	1262	163.238728744039	317
1	1262	163.238728744039	318
1	1274	164.550941537293	319
1	1274	164.550941537293	320
1	1274	164.550941537293	321
1	1286	165.954052413817	322
1	1286	165.954052413817	323
1	1286	165.954052413817	324
1	1298	167.922197027032	325
1	1298	167.922197027032	326
1	1298	167.922197027032	327
1	1310	169.709700225932	328
1	1310	169.709700225932	329
1	1310	169.709700225932	330
1	1322	170.966978658249	331
1	1322	170.966978658249	332
1	1322	170.966978658249	333
1	1334	172.777531910499	334
1	1334	172.777531910499	335
1	1334	172.777531910499	336
1	1346	174.796502833017	337
1	1346	174.796502833017	338
1	1346	174.796502833017	339
1	1358	176.165887143277	340
1	1358	176.165887143277	341
1	1358	176.165887143277	342
1	1370	177.939675701838	343
1	1370	177.939675701838	344
1	1370	177.939675701838	345
1	1382	179.22886731305	346
1	1382	179.22886731305	347
1	1382	179.22886731305	348
1	1394	180.943010907321	349
1	1394	180.943010907321	350
1	1394	180.943010907321	351
1	1406	182.285218164113	352
1	1406	182.285218164113	353
1	1406	182.285218164113	354
1	1418	183.440382433627	355
1	1418	183.440382433627	356
1	1418	183.440382433627	357
1	1430	184.373711573188	358
1	1430	184.373711573188	359
1	1430	184.373711573188	360
1	1442	186.146095229252	361
1	1442	186.146095229252	362
1	1442	186.146095229252	363
1	1454	187.145480242304	364
1	1454	187.145480242304	365
1	1454	187.145480242304	366
1	1466	189.113053321414	367
1	1466	189.113053321414	368
1	1466	189.113053321414	369
1	1478	191.118236030461	370
1	1478	191.118236030461	371
1	1478	191.118236030461	372
1	1490	192.792291903603	373
1	1490	192.792291903603	374
1	1490	192.792291903603	375
1	1502	194.539785043308	376
1	1502	194.539785043308	377
1	1502	194.539785043308	378
1	1514	195.550299596908	379
1	1514	195.550299596908	380
1	1514	195.550299596908	381
1	1526	196.821868600468	382
1	1526	196.821868600468	383
1	1526	196.821868600468	384
1	1538	198.707798305722	385
1	1538	198.707798305722	386
1	1538	198.707798305722	387
1	1550	200.395852791414	388
1	1550	200.395852791414	389
1	1550	200.395852791414	390
1	1562	201.294926232277	391
1	1562	201.294926232277	392
1	1562	201.294926232277	393
1	1574	202.519455508954	394
1	1574	202.519455508954	395
1	1574	202.519455508954	396
1	1586	203.778307962573	397
1	1586	203.778307962573	398
1	1586	203.778307962573	399
1	1598	205.836190997234	400
1	1598	205.836190997234	401
1	1598	205.836190997234	402
1	1610	207.529948066742	403
1	1610	207.529948066742	404
1	1610	207.529948066742	405
1	1622	209.050324778232	406
1	1622	209.050324778232	407
1	1622	209.050324778232	408
1	1634	210.484888565635	409
1	1634	210.484888565635	410
1	1634	210.484888565635	411
1	1646	211.729053349175	412
1	1646	211.729053349175	413
1	1646	211.729053349175	414
1	1658	213.717068292298	415
1	1658	213.717068292298	416
1	1658	213.717068292298	417
1	1670	215.609873094237	418
1	1670	215.609873094237	419
1	1670	215.609873094237	420
1	1682	216.735864286915	421
1	1682	216.735864286915	422
1	1682	216.735864286915	423
1	1694	218.404848131811	424
1	1694	218.404848131811	425
1	1694	218.404848131811	426
1	1706	220.191005850452	427
1	1706	220.191005850452	428
1	1706	220.191005850452	429
1	1718	221.753602194354	430
1	1718	221.753602194354	431
1	1718	221.753602194354	432
1	1730	222.874071414094	433
1	1730	222.874071414094	434
1	1730	222.874071414094	435
1	1742	224.359292292416	436
1	1742	224.359292292416	437
1	1742	224.359292292416	438
1	1754	225.873044168019	439
1	1754	225.873044168019	440
1	1754	225.873044168019	441
1	1766	226.868153543185	442
1	1766	226.868153543185	443
1	1766	226.868153543185	444
1	1778	228.054045543535	445
1	1778	228.054045543535	446
1	1778	228.054045543535	447
1	1790	230.007587679941	448
1	1790	230.007587679941	449
1	1790	230.007587679941	450
1	1802	231.198848744284	451
1	1802	231.198848744284	452
1	1802	231.198848744284	453
1	1814	232.293681559551	454
1	1814	232.293681559551	455
1	1814	232.293681559551	456
1	1826	233.9162436858	457
1	1826	233.9162436858	458
1	1826	233.9162436858	459
1	1838	235.139643466412	460
1	1838	235.139643466412	461
1	1838	235.139643466412	462
1	1850	236.528299839432	463
1	1850	236.528299839432	464
1	1850	236.528299839432	465
1	1862	238.237020325614	466
1	1862	238.237020325614	467
1	1862	238.237020325614	468
1	1874	239.59446167008	469
1	1874	239.59446167008	470
1	1874	239.59446167008	471
2	2	0.336915042552	1
2	6	0.740937257645	2
2	9	0.803066280219	3
2	14	2.030659592976	4
2	16	2.280711010555	5
2	20	2.567712329193	6
2	26	3.606399215458	7
2	31	4.05008512205	8
2	32	4.062470601614	9
2	38	5.313729122737	10
2	43	5.679384806601	11
2	45	5.821521019567	12
2	50	6.430924073956	13
2	55	6.735351457076	14
2	57	6.827310373725	15
2	62	8.166572259003	16
2	67	8.496142582278	17
2	68	8.583769210865	18
2	74	9.633152275556	19
2	79	10.05693827016	20
2	80	10.077976236092	21
2	86	10.795969383858	22
2	92	11.25085092663	23
2	94	11.278384711923	24
2	98	12.039606506507	25
2	102	12.28642587362	26
2	105	12.441401635279	27
2	110	13.980935266902	28
2	116	14.416970082385	29
2	117	14.450092024604	30
2	122	15.716275440248	31
2	127	16.112975388876	32
2	128	16.12112188573	33
2	134	17.578645725117	34
2	140	17.968503299264	35
2	141	17.988885601832	36
2	146	19.452964215448	37
2	152	19.849354880295	38
2	155	19.909129662539	39
2	158	20.781167281311	40
2	163	21.175430596928	41
2	164	21.194912086226	42
2	170	22.685916190135	43
2	175	23.061446394331	44
2	179	23.200734573335	45
2	182	24.429745768888	46
2	186	24.839453455179	47
2	187	24.852930700662	48
2	194	25.577001558184	49
2	198	25.834342843465	50
2	200	25.919936397779	51
2	206	27.468360505074	52
2	211	27.806286720335	53
2	213	27.97309732175	54
2	218	29.066541608018	55
2	223	29.458621432627	56
2	224	29.536201874951	57
2	230	30.626031170587	58
2	235	30.958745828999	59
2	236	31.11610797313	60
2	242	32.480588215915	61
2	246	32.910601104444	62
2	249	32.982839885509	63
2	254	34.535144019532	64
2	260	34.93334734879	65
2	261	34.978424275955	66
2	266	35.924038881152	67
2	271	36.316813485579	68
2	272	36.326720273332	69
2	278	37.021090448077	70
2	282	37.354673798501	71
2	284	37.43895681808	72
2	290	39.065494155453	73
2	295	39.49426684619	74
2	297	39.604882240372	75
2	302	40.785900793311	76
2	307	41.26438582369	77
2	308	41.286150415848	78
2	314	42.820903665987	79
2	318	43.111703880628	80
2	323	43.318605813756	81
2	326	44.220267882999	82
2	332	44.68841822184	83
2	333	44.737222703956	84
2	338	46.087687525093	85
2	342	46.350716583487	86
2	345	46.494266357494	87
2	350	47.114809211278	88
2	354	47.40263407192	89
2	356	47.533943599577	90
2	362	48.463567680616	91
2	367	48.865287444021	92
2	370	48.969957564512	93
2	374	50.303384677032	94
2	378	50.733639813911	95
2	379	50.748473317325	96
2	386	51.720915672321	97
2	390	52.020986510057	98
2	393	52.144988629053	99
2	398	53.298214431105	100
2	402	53.673563578388	101
2	404	53.801391092108	102
2	410	55.152975415653	103
2	414	55.518596163404	104
2	417	55.718184372481	105
2	422	56.356352780969	106
2	426	56.670002294127	107
2	428	56.776409612312	108
2	434	58.067651945714	109
2	438	58.407630126258	110
2	439	58.424738249488	111
2	446	59.385084811557	112
2	450	59.689521150934	113
2	453	59.752204001051	114
2	458	61.140998132353	115
2	463	61.509839817321	116
2	464	61.670528416891	117
2	470	62.586351822816	118
2	475	62.97961705933	119
2	477	63.040939001191	120
2	482	63.998477051911	121
2	485	64.271417569219	122
2	489	64.472092445717	123
2	494	65.688936071606	124
2	498	66.069983263052	125
2	499	66.100704774106	126
2	506	66.954099357636	127
2	511	67.292116859679	128
2	515	67.484696892509	129
2	518	68.739982823344	130
2	524	69.148574073565	131
2	528	69.227406402729	132
2	530	70.653342347164	133
2	534	71.047132780103	134
2	536	71.108007614276	135
2	542	72.237449877002	136
2	546	72.557425432369	137
2	547	72.558408987223	138
2	554	73.673051848731	139
2	560	74.053105438338	140
2	561	74.118436125348	141
2	566	74.811127825477	142
2	570	75.136650550233	143
2	572	75.255087446826	144
2	578	76.461469914287	145
2	582	76.748183202674	146
2	584	76.802168855919	147
2	590	77.845782236057	148
2	595	78.264066138375	149
2	597	78.353666986528	150
2	602	78.949311611099	151
2	607	79.400902830293	152
2	608	79.421369735396	153
2	614	79.948684300504	154
2	618	80.309780629315	155
2	620	80.439447361818	156
2	626	81.912556400532	157
2	630	82.220050746661	158
2	633	82.353093172316	159