version 3
run General-3-20231017-19:19:35-8222
attr configname General
attr datetime 20231017-19:19:35
attr datetimef 20231017-191935
attr experiment General
attr inifile omnetpp.ini
attr iterationvars ""
attr iterationvarsd ""
attr iterationvarsf ""
attr measurement ""
attr network Reliability
attr processid 8222
attr repetition 3
attr replication #3
attr resultdir results
attr runnumber 3
attr seedset 3
config network Reliability
config Reliability.node[*].transmissionTime "uniform(1s, 2s)"
config Reliability.node[*].delayTime "uniform(0.01s, 0.2s)"
config Reliability.node[*].lossProbability 0.0
config record-eventlog true
config sim-time-limit 240s
config repeat 5

vector 0 Reliability.node[0] txVector ETV
vector 1 Reliability.node[1] txVector ETV
vector 2 Reliability.node[1] rxVector ETV
vector 3 Reliability.node[2] txVector ETV
vector 4 Reliability.node[2] rxVector ETV
vector 5 Reliability.node[0] rxVector ETV
vector 6 Reliability.node[3] txVector ETV
vector 7 Reliability.node[3] rxVector ETV
vector 8 Reliability.node[4] txVector ETV
vector 9 Reliability.node[4] rxVector ETV
vector 10 Reliability.node[5] rxVector ETV
0	1	0.114651601831	1
0	1	0.114651601831	1
0	1	0.114651601831	1
0	13	1.822799424012	2
0	13	1.822799424012	2
0	13	1.822799424012	2
0	25	3.471943475609	3
0	25	3.471943475609	3
0	25	3.471943475609	3
0	37	4.628811216285	4
0	37	4.628811216285	4
0	37	4.628811216285	4
0	49	6.006805261667	5
0	49	6.006805261667	5
0	49	6.006805261667	5
0	61	7.867339173402	6
0	61	7.867339173402	6
0	61	7.867339173402	6
0	73	9.575025797426	7
0	73	9.575025797426	7
0	73	9.575025797426	7
0	85	10.817701218953	8
0	85	10.817701218953	8
0	85	10.817701218953	8
0	97	11.96956221161	9
0	97	11.96956221161	9
0	97	11.96956221161	9
0	109	13.808755271673	10
0	109	13.808755271673	10
0	109	13.808755271673	10
0	121	15.000827568654	11
0	121	15.000827568654	11
0	121	15.000827568654	11
0	133	16.456106926385	12
0	133	16.456106926385	12
0	133	16.456106926385	12
0	145	18.107229691768	13
0	145	18.107229691768	13
0	145	18.107229691768	13
0	157	19.944692119794	14
0	157	19.944692119794	14
0	157	19.944692119794	14
0	169	21.63965555823	15
0	169	21.63965555823	15
0	169	21.63965555823	15
0	181	23.438619874023	16
0	181	23.438619874023	16
0	181	23.438619874023	16
0	193	25.310799388286	17
0	193	25.310799388286	17
0	193	25.310799388286	17
0	205	26.845534259059	18
0	205	26.845534259059	18
0	205	26.845534259059	18
0	217	28.588271531813	19
0	217	28.588271531813	19
0	217	28.588271531813	19
0	229	30.034081710341	20
0	229	30.034081710341	20
0	229	30.034081710341	20
0	241	31.652818293848	21
0	241	31.652818293848	21
0	241	31.652818293848	21
0	253	32.815338985368	22
0	253	32.815338985368	22
0	253	32.815338985368	22
0	265	34.043051883418	23
0	265	34.043051883418	23
0	265	34.043051883418	23
0	277	35.460318780111	24
0	277	35.460318780111	24
0	277	35.460318780111	24
0	289	36.926011849267	25
0	289	36.926011849267	25
0	289	36.926011849267	25
0	301	38.039455935198	26
0	301	38.039455935198	26
0	301	38.039455935198	26
0	313	39.774780118211	27
0	313	39.774780118211	27
0	313	39.774780118211	27
0	325	41.637385202876	28
0	325	41.637385202876	28
0	325	41.637385202876	28
0	337	43.312195139077	29
0	337	43.312195139077	29
0	337	43.312195139077	29
0	349	44.847170718551	30
0	349	44.847170718551	30
0	349	44.847170718551	30
0	361	46.671131894529	31
0	361	46.671131894529	31
0	361	46.671131894529	31
0	373	48.20856627084	32
0	373	48.20856627084	32
0	373	48.20856627084	32
0	385	49.55496796996	33
0	385	49.55496796996	33
0	385	49.55496796996	33
0	397	51.28113596684	34
0	397	51.28113596684	34
0	397	51.28113596684	34
0	409	52.705283214642	35
0	409	52.705283214642	35
0	409	52.705283214642	35
0	421	54.403187962087	36
0	421	54.403187962087	36
0	421	54.403187962087	36
0	433	56.381593111042	37
0	433	56.381593111042	37
0	433	56.381593111042	37
0	445	57.916233616952	38
0	445	57.916233616952	38
0	445	57.916233616952	38
0	457	59.654266444804	39
0	457	59.654266444804	39
0	457	59.654266444804	39
0	469	60.945548649715	40
0	469	60.945548649715	40
0	469	60.945548649715	40
0	481	62.641054940015	41
0	481	62.641054940015	41
0	481	62.641054940015	41
0	493	63.782940366842	42
0	493	63.782940366842	42
0	493	63.782940366842	42
0	505	65.527545126924	43
0	505	65.527545126924	43
0	505	65.527545126924	43
0	517	67.311795592844	44
0	517	67.311795592844	44
0	517	67.311795592844	44
0	529	69.151152872318	45
0	529	69.151152872318	45
0	529	69.151152872318	45
0	541	70.326653488284	46
0	541	70.326653488284	46
0	541	70.326653488284	46
0	553	71.875320658624	47
0	553	71.875320658624	47
0	553	71.875320658624	47
0	565	73.491556021688	48
0	565	73.491556021688	48
0	565	73.491556021688	48
0	577	74.558126009838	49
0	577	74.558126009838	49
0	577	74.558126009838	49
0	589	75.579585762066	50
0	589	75.579585762066	50
0	589	75.579585762066	50
0	601	77.34182416352	51
0	601	77.34182416352	51
0	601	77.34182416352	51
0	613	78.469247912592	52
0	613	78.469247912592	52
0	613	78.469247912592	52
0	625	80.447509531467	53
0	625	80.447509531467	53
0	625	80.447509531467	53
0	637	82.271639140392	54
0	637	82.271639140392	54
0	637	82.271639140392	54
0	649	83.35715154123	55
0	649	83.35715154123	55
0	649	83.35715154123	55
0	661	84.374804156203	56
0	661	84.374804156203	56
0	661	84.374804156203	56
0	673	86.265714889461	57
0	673	86.265714889461	57
0	673	86.265714889461	57
0	685	87.72535774398	58
0	685	87.72535774398	58
0	685	87.72535774398	58
0	697	88.824455902515	59
0	697	88.824455902515	59
0	697	88.824455902515	59
0	709	90.497078780387	60
0	709	90.497078780387	60
0	709	90.497078780387	60
0	721	91.658983996906	61
0	721	91.658983996906	61
0	721	91.658983996906	61
0	733	93.031578457285	62
0	733	93.031578457285	62
0	733	93.031578457285	62
0	745	94.377485756133	63
0	745	94.377485756133	63
0	745	94.377485756133	63
0	757	95.66529112223	64
0	757	95.66529112223	64
0	757	95.66529112223	64
0	769	97.226580266677	65
0	769	97.226580266677	65
0	769	97.226580266677	65
0	781	98.245504611474	66
0	781	98.245504611474	66
0	781	98.245504611474	66
0	793	100.134464198327	67
0	793	100.134464198327	67
0	793	100.134464198327	67
0	805	101.783039992046	68
0	805	101.783039992046	68
0	805	101.783039992046	68
0	817	102.986253869556	69
0	817	102.986253869556	69
0	817	102.986253869556	69
0	829	104.640404061716	70
0	829	104.640404061716	70
0	829	104.640404061716	70
0	841	105.780552966589	71
0	841	105.780552966589	71
0	841	105.780552966589	71
0	853	107.287985016195	72
0	853	107.287985016195	72
0	853	107.287985016195	72
0	865	109.108450511772	73
0	865	109.108450511772	73
0	865	109.108450511772	73
0	877	110.432016799994	74
0	877	110.432016799994	74
0	877	110.432016799994	74
0	889	112.21750926047	75
0	889	112.21750926047	75
0	889	112.21750926047	75
0	901	114.216055862442	76
0	901	114.216055862442	76
0	901	114.216055862442	76
0	913	115.90224846343	77
0	913	115.90224846343	77
0	913	115.90224846343	77
0	925	117.422273651999	78
0	925	117.422273651999	78
0	925	117.422273651999	78
0	937	119.188890164322	79
0	937	119.188890164322	79
0	937	119.188890164322	79
0	949	121.148303814535	80
0	949	121.148303814535	80
0	949	121.148303814535	80
0	961	122.454856924084	81
0	961	122.454856924084	81
0	961	122.454856924084	81
0	973	124.446294823033	82
0	973	124.446294823033	82
0	973	124.446294823033	82
0	985	125.61510637037	83
0	985	125.61510637037	83
0	985	125.61510637037	83
0	997	127.19009914815	84
0	997	127.19009914815	84
0	997	127.19009914815	84
0	1009	128.517401855742	85
0	1009	128.517401855742	85
0	1009	128.517401855742	85
0	1021	130.341317120311	86
0	1021	130.341317120311	86
0	1021	130.341317120311	86
0	1033	131.507794543239	87
0	1033	131.507794543239	87
0	1033	131.507794543239	87
0	1045	133.356618907605	88
0	1045	133.356618907605	88
0	1045	133.356618907605	88
0	1057	134.619144267705	89
0	1057	134.619144267705	89
0	1057	134.619144267705	89
0	1069	136.519762107939	90
0	1069	136.519762107939	90
0	1069	136.519762107939	90
0	1081	138.427404771861	91
0	1081	138.427404771861	91
0	1081	138.427404771861	91
0	1093	140.202096027391	92
0	1093	140.202096027391	92
0	1093	140.202096027391	92
0	1105	141.519650348764	93
0	1105	141.519650348764	93
0	1105	141.519650348764	93
0	1117	142.941995836398	94
0	1117	142.941995836398	94
0	1117	142.941995836398	94
0	1129	144.286555193434	95
0	1129	144.286555193434	95
0	1129	144.286555193434	95
0	1141	145.904568808688	96
0	1141	145.904568808688	96
0	1141	145.904568808688	96
0	1153	146.912642732565	97
0	1153	146.912642732565	97
0	1153	146.912642732565	97
0	1165	148.276804752019	98
0	1165	148.276804752019	98
0	1165	148.276804752019	98
0	1177	149.86627322908	99
0	1177	149.86627322908	99
0	1177	149.86627322908	99
0	1189	151.091756259394	100
0	1189	151.091756259394	100
0	1189	151.091756259394	100
0	1201	152.191845655046	101
0	1201	152.191845655046	101
0	1201	152.191845655046	101
0	1213	153.210490579787	102
0	1213	153.210490579787	102
0	1213	153.210490579787	102
0	1225	154.262291464093	103
0	1225	154.262291464093	103
0	1225	154.262291464093	103
0	1237	155.641444128309	104
0	1237	155.641444128309	104
0	1237	155.641444128309	104
0	1249	157.256245977315	105
0	1249	157.256245977315	105
0	1249	157.256245977315	105
0	1261	158.952782238438	106
0	1261	158.952782238438	106
0	1261	158.952782238438	106
0	1273	160.031680888334	107
0	1273	160.031680888334	107
0	1273	160.031680888334	107
0	1285	161.990338503919	108
0	1285	161.990338503919	108
0	1285	161.990338503919	108
0	1297	163.9787873375	109
0	1297	163.9787873375	109
0	1297	163.9787873375	109
0	1309	165.351762586809	110
0	1309	165.351762586809	110
0	1309	165.351762586809	110
0	1321	166.968784209877	111
0	1321	166.968784209877	111
0	1321	166.968784209877	111
0	1333	168.39453556838	112
0	1333	168.39453556838	112
0	1333	168.39453556838	112
0	1345	170.367969566561	113
0	1345	170.367969566561	113
0	1345	170.367969566561	113
0	1357	171.879080501921	114
0	1357	171.879080501921	114
0	1357	171.879080501921	114
0	1369	173.102216074779	115
0	1369	173.102216074779	115
0	1369	173.102216074779	115
0	1381	174.382461646642	116
0	1381	174.382461646642	116
0	1381	174.382461646642	116
0	1393	175.89409207257	117
0	1393	175.89409207257	117
0	1393	175.89409207257	117
0	1405	177.145965543413	118
0	1405	177.145965543413	118
0	1405	177.145965543413	118
0	1417	178.793107459159	119
0	1417	178.793107459159	119
0	1417	178.793107459159	119
0	1429	180.783123531915	120
0	1429	180.783123531915	120
0	1429	180.783123531915	120
0	1441	182.469823864126	121
0	1441	182.469823864126	121
0	1441	182.469823864126	121
0	1453	184.033841104084	122
0	1453	184.033841104084	122
0	1453	184.033841104084	122
0	1465	186.016114814743	123
0	1465	186.016114814743	123
0	1465	186.016114814743	123
0	1477	187.926818748308	124
0	1477	187.926818748308	124
0	1477	187.926818748308	124
0	1489	189.568323023455	125
0	1489	189.568323023455	125
0	1489	189.568323023455	125
0	1501	191.539521830926	126
0	1501	191.539521830926	126
0	1501	191.539521830926	126
0	1513	193.074516094826	127
0	1513	193.074516094826	127
0	1513	193.074516094826	127
0	1525	194.348942322494	128
0	1525	194.348942322494	128
0	1525	194.348942322494	128
0	1537	196.244878286333	129
0	1537	196.244878286333	129
0	1537	196.244878286333	129
0	1549	197.69622754429	130
0	1549	197.69622754429	130
0	1549	197.69622754429	130
0	1561	198.815806010575	131
0	1561	198.815806010575	131
0	1561	198.815806010575	131
0	1573	200.240921449452	132
0	1573	200.240921449452	132
0	1573	200.240921449452	132
0	1585	202.055410952843	133
0	1585	202.055410952843	133
0	1585	202.055410952843	133
0	1597	203.932834670018	134
0	1597	203.932834670018	134
0	1597	203.932834670018	134
0	1609	204.997564423667	135
0	1609	204.997564423667	135
0	1609	204.997564423667	135
0	1621	206.562551132008	136
0	1621	206.562551132008	136
0	1621	206.562551132008	136
0	1633	208.475517897239	137
0	1633	208.475517897239	137
0	1633	208.475517897239	137
0	1645	210.469624578092	138
0	1645	210.469624578092	138
0	1645	210.469624578092	138
0	1657	211.530711661163	139
0	1657	211.530711661163	139
0	1657	211.530711661163	139
0	1669	212.550546157244	140
0	1669	212.550546157244	140
0	1669	212.550546157244	140
0	1681	213.722847569106	141
0	1681	213.722847569106	141
0	1681	213.722847569106	141
0	1693	215.52231903195	142
0	1693	215.52231903195	142
0	1693	215.52231903195	142
0	1705	217.223504800886	143
0	1705	217.223504800886	143
0	1705	217.223504800886	143
0	1717	218.244976191387	144
0	1717	218.244976191387	144
0	1717	218.244976191387	144
0	1729	220.133126558109	145
0	1729	220.133126558109	145
0	1729	220.133126558109	145
0	1741	221.154633273908	146
0	1741	221.154633273908	146
0	1741	221.154633273908	146
0	1753	222.2791489254	147
0	1753	222.2791489254	147
0	1753	222.2791489254	147
0	1765	223.587372750348	148
0	1765	223.587372750348	148
0	1765	223.587372750348	148
0	1777	224.907547482361	149
0	1777	224.907547482361	149
0	1777	224.907547482361	149
0	1789	226.559192632397	150
0	1789	226.559192632397	150
0	1789	226.559192632397	150
0	1801	228.543733018988	151
0	1801	228.543733018988	151
0	1801	228.543733018988	151
0	1813	230.515388071143	152
0	1813	230.515388071143	152
0	1813	230.515388071143	152
0	1825	232.359575547815	153
0	1825	232.359575547815	153
0	1825	232.359575547815	153
0	1837	234.191396468623	154
0	1837	234.191396468623	154
0	1837	234.191396468623	154
0	1849	236.009074140178	155
0	1849	236.009074140178	155
0	1849	236.009074140178	155
0	1861	237.540979338648	156
0	1861	237.540979338648	156
0	1861	237.540979338648	156
0	1873	239.078907824425	157
0	1873	239.078907824425	157
0	1873	239.078907824425	157
1	2	0.238089329092	1
1	2	0.238089329092	2
1	2	0.238089329092	3
1	14	2.018902160926	4
1	14	2.018902160926	5
1	14	2.018902160926	6
1	26	3.634178296046	7
1	26	3.634178296046	8
1	26	3.634178296046	9
1	38	4.814619497951	10
1	38	4.814619497951	11
1	38	4.814619497951	12
1	50	6.240995123636	13
1	50	6.240995123636	14
1	50	6.240995123636	15
1	62	8.046183860549	16
1	62	8.046183860549	17
1	62	8.046183860549	18
1	74	9.742455884002	19
1	74	9.742455884002	20
1	74	9.742455884002	21
1	86	10.961153020848	22
1	86	10.961153020848	23
1	86	10.961153020848	24
1	98	12.235320550078	25
1	98	12.235320550078	26
1	98	12.235320550078	27
1	110	14.076079473908	28
1	110	14.076079473908	29
1	110	14.076079473908	30
1	122	15.279338212857	31
1	122	15.279338212857	32
1	122	15.279338212857	33
1	134	16.613937813396	34
1	134	16.613937813396	35
1	134	16.613937813396	36
1	146	18.373852656703	37
1	146	18.373852656703	38
1	146	18.373852656703	39
1	158	20.070190617876	40
1	158	20.070190617876	41
1	158	20.070190617876	42
1	170	21.883366101257	43
1	170	21.883366101257	44
1	170	21.883366101257	45
1	182	23.681176350253	46
1	182	23.681176350253	47
1	182	23.681176350253	48
1	194	25.571614219876	49
1	194	25.571614219876	50
1	194	25.571614219876	51
1	206	26.997785759779	52
1	206	26.997785759779	53
1	206	26.997785759779	54
1	218	28.866243818839	55
1	218	28.866243818839	56
1	218	28.866243818839	57
1	230	30.230400948705	58
1	230	30.230400948705	59
1	230	30.230400948705	60
1	242	31.815404197941	61
1	242	31.815404197941	62
1	242	31.815404197941	63
1	254	33.076070294224	64
1	254	33.076070294224	65
1	254	33.076070294224	66
1	266	34.215042044442	67
1	266	34.215042044442	68
1	266	34.215042044442	69
1	278	35.687614259094	70
1	278	35.687614259094	71
1	278	35.687614259094	72
1	290	37.100675019522	73
1	290	37.100675019522	74
1	290	37.100675019522	75
1	302	38.285479918101	76
1	302	38.285479918101	77
1	302	38.285479918101	78
1	314	40.070019400953	79
1	314	40.070019400953	80
1	314	40.070019400953	81
1	326	41.755651360652	82
1	326	41.755651360652	83
1	326	41.755651360652	84
1	338	43.456205224412	85
1	338	43.456205224412	86
1	338	43.456205224412	87
1	350	45.00600881199	88
1	350	45.00600881199	89
1	350	45.00600881199	90
1	362	46.783004691146	91
1	362	46.783004691146	92
1	362	46.783004691146	93
1	374	48.419813249532	94
1	374	48.419813249532	95
1	374	48.419813249532	96
1	386	49.6813542573	97
1	386	49.6813542573	98
1	386	49.6813542573	99
1	398	51.552847435769	100
1	398	51.552847435769	101
1	398	51.552847435769	102
1	410	52.896100560719	103
1	410	52.896100560719	104
1	410	52.896100560719	105
1	422	54.584884362103	106
1	422	54.584884362103	107
1	422	54.584884362103	108
1	434	56.636642898341	109
1	434	56.636642898341	110
1	434	56.636642898341	111
1	446	58.161755154676	112
1	446	58.161755154676	113
1	446	58.161755154676	114
1	458	59.897063028981	115
1	458	59.897063028981	116
1	458	59.897063028981	117
1	470	61.106702496138	118
1	470	61.106702496138	119
1	470	61.106702496138	120
1	482	62.932343066052	121
1	482	62.932343066052	122
1	482	62.932343066052	123
1	494	63.94929349664	124
1	494	63.94929349664	125
1	494	63.94929349664	126
1	506	65.800761220451	127
1	506	65.800761220451	128
1	506	65.800761220451	129
1	518	67.472954825045	130
1	518	67.472954825045	131
1	518	67.472954825045	132
1	530	69.397246315415	133
1	530	69.397246315415	134
1	530	69.397246315415	135
1	542	70.485001868057	136
1	542	70.485001868057	137
1	542	70.485001868057	138
1	554	72.144721418611	139
1	554	72.144721418611	140
1	554	72.144721418611	141
1	566	73.736378804385	142
1	566	73.736378804385	143
1	566	73.736378804385	144
1	578	74.697906848237	145
1	578	74.697906848237	146
1	578	74.697906848237	147
1	590	75.766863073206	148
1	590	75.766863073206	149
1	590	75.766863073206	150
1	602	77.566612565008	151
1	602	77.566612565008	152
1	602	77.566612565008	153
1	614	78.583352428246	154
1	614	78.583352428246	155
1	614	78.583352428246	156
1	626	80.742652915148	157
1	626	80.742652915148	158
1	626	80.742652915148	159
1	638	82.460777570381	160
1	638	82.460777570381	161
1	638	82.460777570381	162
1	650	83.552721858567	163
1	650	83.552721858567	164
1	650	83.552721858567	165
1	662	84.62045188612	166
1	662	84.62045188612	167
1	662	84.62045188612	168
1	674	86.388689671893	169
1	674	86.388689671893	170
1	674	86.388689671893	171
1	686	87.86441075744	172
1	686	87.86441075744	173
1	686	87.86441075744	174
1	698	89.003949418768	175
1	698	89.003949418768	176
1	698	89.003949418768	177
1	710	90.644335131836	178
1	710	90.644335131836	179
1	710	90.644335131836	180
1	722	91.790890739211	181
1	722	91.790890739211	182
1	722	91.790890739211	183
1	734	93.208364096896	184
1	734	93.208364096896	185
1	734	93.208364096896	186
1	746	94.670750436696	187
1	746	94.670750436696	188
1	746	94.670750436696	189
1	758	95.855348390943	190
1	758	95.855348390943	191
1	758	95.855348390943	192
1	770	97.447383774104	193
1	770	97.447383774104	194
1	770	97.447383774104	195
1	782	98.445285282481	196
1	782	98.445285282481	197
1	782	98.445285282481	198
1	794	100.296143968843	199
1	794	100.296143968843	200
1	794	100.296143968843	201
1	806	101.998536848602	202
1	806	101.998536848602	203
1	806	101.998536848602	204
1	818	103.192997329688	205
1	818	103.192997329688	206
1	818	103.192997329688	207
1	830	104.856621846579	208
1	830	104.856621846579	209
1	830	104.856621846579	210
1	842	106.051427703475	211
1	842	106.051427703475	212
1	842	106.051427703475	213
1	854	107.544199552752	214
1	854	107.544199552752	215
1	854	107.544199552752	216
1	866	109.251360290988	217
1	866	109.251360290988	218
1	866	109.251360290988	219
1	878	110.616430543369	220
1	878	110.616430543369	221
1	878	110.616430543369	222
1	890	112.402239467955	223
1	890	112.402239467955	224
1	890	112.402239467955	225
1	902	114.375408582342	226
1	902	114.375408582342	227
1	902	114.375408582342	228
1	914	116.175836092908	229
1	914	116.175836092908	230
1	914	116.175836092908	231
1	926	117.568561066407	232
1	926	117.568561066407	233
1	926	117.568561066407	234
1	938	119.300981051633	235
1	938	119.300981051633	236
1	938	119.300981051633	237
1	950	121.361723675828	238
1	950	121.361723675828	239
1	950	121.361723675828	240
1	962	122.624631028515	241
1	962	122.624631028515	242
1	962	122.624631028515	243
1	974	124.688417631467	244
1	974	124.688417631467	245
1	974	124.688417631467	246
1	986	125.76535892851	247
1	986	125.76535892851	248
1	986	125.76535892851	249
1	998	127.430534996291	250
1	998	127.430534996291	251
1	998	127.430534996291	252
1	1010	128.652394050474	253
1	1010	128.652394050474	254
1	1010	128.652394050474	255
1	1022	130.570237701088	256
1	1022	130.570237701088	257
1	1022	130.570237701088	258
1	1034	131.701206831708	259
1	1034	131.701206831708	260
1	1034	131.701206831708	261
1	1046	133.472955434532	262
1	1046	133.472955434532	263
1	1046	133.472955434532	264
1	1058	134.839784180347	265
1	1058	134.839784180347	266
1	1058	134.839784180347	267
1	1070	136.692124627118	268
1	1070	136.692124627118	269
1	1070	136.692124627118	270
1	1082	138.581694628938	271
1	1082	138.581694628938	272
1	1082	138.581694628938	273
1	1094	140.331546874476	274
1	1094	140.331546874476	275
1	1094	140.331546874476	276
1	1106	141.654862243518	277
1	1106	141.654862243518	278
1	1106	141.654862243518	279
1	1118	143.188880532137	280
1	1118	143.188880532137	281
1	1118	143.188880532137	282
1	1130	144.424829584239	283
1	1130	144.424829584239	284
1	1130	144.424829584239	285
1	1142	146.033440566267	286
1	1142	146.033440566267	287
1	1142	146.033440566267	288
1	1154	147.033426733375	289
1	1154	147.033426733375	290
1	1154	147.033426733375	291
1	1166	148.413949319725	292
1	1166	148.413949319725	293
1	1166	148.413949319725	294
1	1178	150.12885818338	295
1	1178	150.12885818338	296
1	1178	150.12885818338	297
1	1190	151.330796147706	298
1	1190	151.330796147706	299
1	1190	151.330796147706	300
1	1202	152.339791275429	301
1	1202	152.339791275429	302
1	1202	152.339791275429	303
1	1214	153.437960821658	304
1	1214	153.437960821658	305
1	1214	153.437960821658	306
1	1226	154.548695690045	307
1	1226	154.548695690045	308
1	1226	154.548695690045	309
1	1238	155.773966853313	310
1	1238	155.773966853313	311
1	1238	155.773966853313	312
1	1250	157.376543508109	313
1	1250	157.376543508109	314
1	1250	157.376543508109	315
1	1262	159.122498248655	316
1	1262	159.122498248655	317
1	1262	159.122498248655	318
1	1274	160.312118383658	319
1	1274	160.312118383658	320
1	1274	160.312118383658	321
1	1286	162.248807067629	322
1	1286	162.248807067629	323
1	1286	162.248807067629	324
1	1298	164.239814460471	325
1	1298	164.239814460471	326
1	1298	164.239814460471	327
1	1310	165.527908573521	328
1	1310	165.527908573521	329
1	1310	165.527908573521	330
1	1322	167.207297467839	331
1	1322	167.207297467839	332
1	1322	167.207297467839	333
1	1334	168.675806461808	334
1	1334	168.675806461808	335
1	1334	168.675806461808	336
1	1346	170.637989589791	337
1	1346	170.637989589791	338
1	1346	170.637989589791	339
1	1358	172.089579460135	340
1	1358	172.089579460135	341
1	1358	172.089579460135	342
1	1370	173.221257402625	343
1	1370	173.221257402625	344
1	1370	173.221257402625	345
1	1382	174.526967323258	346
1	1382	174.526967323258	347
1	1382	174.526967323258	348
1	1394	176.125424995634	349
1	1394	176.125424995634	350
1	1394	176.125424995634	351
1	1406	177.26528883721	352
1	1406	177.26528883721	353
1	1406	177.26528883721	354
1	1418	178.990393193786	355
1	1418	178.990393193786	356
1	1418	178.990393193786	357
1	1430	180.961521280804	358
1	1430	180.961521280804	359
1	1430	180.961521280804	360
1	1442	182.728624596771	361
1	1442	182.728624596771	362
1	1442	182.728624596771	363
1	1454	184.316014517832	364
1	1454	184.316014517832	365
1	1454	184.316014517832	366
1	1466	186.250378515609	367
1	1466	186.250378515609	368
1	1466	186.250378515609	369
1	1478	188.175745998351	370
1	1478	188.175745998351	371
1	1478	188.175745998351	372
1	1490	189.702234132826	373
1	1490	189.702234132826	374
1	1490	189.702234132826	375
1	1502	191.80926499325	376
1	1502	191.80926499325	377
1	1502	191.80926499325	378
1	1514	193.326132867637	379
1	1514	193.326132867637	380
1	1514	193.326132867637	381
1	1526	194.594532815172	382
1	1526	194.594532815172	383
1	1526	194.594532815172	384
1	1538	196.382089153971	385
1	1538	196.382089153971	386
1	1538	196.382089153971	387
1	1550	197.876985575114	388
1	1550	197.876985575114	389
1	1550	197.876985575114	390
1	1562	198.992002717764	391
1	1562	198.992002717764	392
1	1562	198.992002717764	393
1	1574	200.436499829397	394
1	1574	200.436499829397	395
1	1574	200.436499829397	396
1	1586	202.183669241227	397
1	1586	202.183669241227	398
1	1586	202.183669241227	399
1	1598	204.056661718959	400
1	1598	204.056661718959	401
1	1598	204.056661718959	402
1	1610	205.184047640991	403
1	1610	205.184047640991	404
1	1610	205.184047640991	405
1	1622	206.72620749191	406
1	1622	206.72620749191	407
1	1622	206.72620749191	408
1	1634	208.72751995264	409
1	1634	208.72751995264	410
1	1634	208.72751995264	411
1	1646	210.741991147148	412
1	1646	210.741991147148	413
1	1646	210.741991147148	414
1	1658	211.647433659574	415
1	1658	211.647433659574	416
1	1658	211.647433659574	417
1	1670	212.696120954748	418
1	1670	212.696120954748	419
1	1670	212.696120954748	420
1	1682	213.928542803864	421
1	1682	213.928542803864	422
1	1682	213.928542803864	423
1	1694	215.808257775238	424
1	1694	215.808257775238	425
1	1694	215.808257775238	426
1	1706	217.42139603522	427
1	1706	217.42139603522	428
1	1706	217.42139603522	429
1	1718	218.406609251673	430
1	1718	218.406609251673	431
1	1718	218.406609251673	432
1	1730	220.276344258624	433
1	1730	220.276344258624	434
1	1730	220.276344258624	435
1	1742	221.352481780301	436
1	1742	221.352481780301	437
1	1742	221.352481780301	438
1	1754	222.541544003933	439
1	1754	222.541544003933	440
1	1754	222.541544003933	441
1	1766	223.784265875408	442
1	1766	223.784265875408	443
1	1766	223.784265875408	444
1	1778	225.040710545862	445
1	1778	225.040710545862	446
1	1778	225.040710545862	447
1	1790	226.834299156489	448
1	1790	226.834299156489	449
1	1790	226.834299156489	450
1	1802	228.697120215599	451
1	1802	228.697120215599	452
1	1802	228.697120215599	453
1	1814	230.677125585332	454
1	1814	230.677125585332	455
1	1814	230.677125585332	456
1	1826	232.536912989539	457
1	1826	232.536912989539	458
1	1826	232.536912989539	459
1	1838	234.319631527328	460
1	1838	234.319631527328	461
1	1838	234.319631527328	462
1	1850	236.266456572363	463
1	1850	236.266456572363	464
1	1850	236.266456572363	465
1	1862	237.698101143843	466
1	1862	237.698101143843	467
1	1862	237.698101143843	468
1	1874	239.200955754629	469
1	1874	239.200955754629	470
1	1874	239.200955754629	471
2	2	0.238089329092	1
2	8	0.579007783311	2
2	9	0.650801681142	3
2	14	2.018902160926	4
2	19	2.473572868758	5
2	20	2.479671400802	6
2	26	3.634178296046	7
2	31	4.047075898136	8
2	32	4.076152639657	9
2	38	4.814619497951	10
2	43	5.201527924143	11
2	45	5.248803539911	12
2	50	6.240995123636	13
2	54	6.567673543892	14
2	56	6.665526777878	15
2	62	8.046183860549	16
2	67	8.484021252981	17
2	69	8.557811063855	18
2	74	9.742455884002	19
2	77	10.02810493133	20
2	80	10.137647610125	21
2	86	10.961153020848	22
2	90	11.22780000703	23
2	96	11.493655874525	24
2	98	12.235320550078	25
2	103	12.706565746794	26
2	104	12.74819351218	27
2	110	14.076079473908	28
2	115	14.519324915607	29
2	117	14.54850036945	30
2	122	15.279338212857	31
2	126	15.546997252252	32
2	129	15.729696919031	33
2	134	16.613937813396	34
2	138	17.010068504329	35
2	140	17.075383517303	36
2	146	18.373852656703	37
2	150	18.732744757187	38
2	153	18.846929655597	39
2	158	20.070190617876	40
2	164	20.465008439157	41
2	165	20.505470318551	42
2	170	21.883366101257	43
2	175	22.212168224175	44
2	178	22.377525783753	45
2	182	23.681176350253	46
2	186	24.094217641478	47
2	188	24.137375199996	48
2	194	25.571614219876	49
2	200	26.018878847646	50
2	201	26.031422271851	51
2	206	26.997785759779	52
2	210	27.406591824795	53
2	212	27.462032389632	54
2	218	28.866243818839	55
2	223	29.17506155433	56
2	224	29.180628746377	57
2	230	30.230400948705	58
2	236	30.615137499724	59
2	237	30.642664250363	60
2	242	31.815404197941	61
2	247	32.197382148345	62
2	248	32.260775092351	63
2	254	33.076070294224	64
2	258	33.424252983466	65
2	259	33.440683086468	66
2	266	34.215042044442	67
2	271	34.537875546893	68
2	273	34.606341094315	69
2	278	35.687614259094	70
2	283	36.09779479201	71
2	284	36.133866473821	72
2	290	37.100675019522	73
2	294	37.438352753723	74
2	296	37.53412479034	75
2	302	38.285479918101	76
2	306	38.60164647328	77
2	309	38.771722438717	78
2	314	40.070019400953	79
2	318	40.32262955125	80
2	319	40.430833564964	81
2	326	41.755651360652	82
2	330	42.111106698068	83
2	332	42.271987214272	84
2	338	43.456205224412	85
2	342	43.771935947548	86
2	343	43.775275083802	87
2	350	45.00600881199	88
2	354	45.512677090253	89
2	355	45.514231779679	90
2	362	46.783004691146	91
2	365	47.06986116219	92
2	369	47.208222270431	93
2	374	48.419813249532	94
2	378	48.75461368468	95
2	383	48.963039224238	96
2	386	49.6813542573	97
2	390	49.990767121074	98
2	393	50.151551635098	99
2	398	51.552847435769	100
2	402	51.873770382012	101
2	403	51.875823141806	102
2	410	52.896100560719	103
2	414	53.244530641843	104
2	417	53.328702796839	105
2	422	54.584884362103	106
2	426	54.949261225945	107
2	428	55.11046222323	108
2	434	56.636642898341	109
2	438	56.965345777598	110
2	441	57.092185027173	111
2	446	58.161755154676	112
2	451	58.546279889516	113
2	452	58.58278485474	114
2	458	59.897063028981	115
2	462	60.182802061615	116
2	464	60.249070240933	117
2	470	61.106702496138	118
2	476	61.571691684957	119
2	477	61.606697845334	120
2	482	62.932343066052	121
2	487	63.338632563144	122
2	488	63.354780496435	123
2	494	63.94929349664	124
2	499	64.235274649776	125
2	504	64.474764297901	126
2	506	65.800761220451	127
2	511	66.109703091341	128
2	513	66.224521002598	129
2	518	67.472954825045	130
2	522	67.820379586439	131
2	523	67.871007837722	132
2	530	69.397246315415	133
2	534	69.651365697811	134
2	536	69.853007275128	135
2	542	70.485001868057	136
2	547	70.879444346369	137
2	549	70.941054881625	138
2	554	72.144721418611	139
2	558	72.513021894743	140
2	561	72.702703796577	141
2	566	73.736378804385	142
2	570	74.034051659078	143
2	573	74.171405471882	144
2	578	74.697906848237	145
2	582	75.050718326272	146
2	585	75.13034049928	147
2	590	75.766863073206	148
2	594	76.105541536976	149
2	597	76.198372421225	150
2	602	77.566612565008	151
2	606	77.904550140189	152
2	609	78.012152586009	153
2	614	78.583352428246	154
2	618	78.907498926781	155
2	619	78.960088817233	156
2	626	80.742652915148	157
2	631	81.232697951838	158
2	632	81.271629686851	159
2	638	82.460777570381	160
2	642	82.826598234911	161