version 3
run General-4-20231017-23:02:21-11995
attr configname General
attr datetime 20231017-23:02:21
attr datetimef 20231017-230221
attr experiment General
attr inifile omnetpp.ini
attr iterationvars ""
attr iterationvarsd ""
attr iterationvarsf ""
attr measurement ""
attr network Reliability
attr processid 11995
attr repetition 4
attr replication #4
attr resultdir results
attr runnumber 4
attr seedset 4
config network Reliability
config Reliability.node[*].transmissionTime "uniform(1s, 2s)"
config Reliability.node[*].delayTime "uniform(0.01s, 0.2s)"
config Reliability.node[*].lossProbability 0.7
config record-eventlog true
config sim-time-limit 240s
config repeat 5

vector 0 Reliability.node[0] txVector ETV
vector 1 Reliability.node[1] txVector ETV
vector 2 Reliability.node[1] rxVector ETV
vector 3 Reliability.node[2] txVector ETV
vector 4 Reliability.node[2] rxVector ETV
vector 5 Reliability.node[3] txVector ETV
vector 6 Reliability.node[3] rxVector ETV
vector 7 Reliability.node[0] rxVector ETV
vector 8 Reliability.node[4] txVector ETV
vector 9 Reliability.node[4] rxVector ETV
vector 10 Reliability.node[5] rxVector ETV
0	1	0.193735669288	1
0	1	0.193735669288	1
0	1	0.193735669288	1
0	3	1.740967922532	2
0	3	1.740967922532	2
0	3	1.740967922532	2
0	10	3.596588867404	3
0	10	3.596588867404	3
0	10	3.596588867404	3
0	12	5.031380396955	4
0	12	5.031380396955	4
0	12	5.031380396955	4
0	14	6.036539546833	5
0	14	6.036539546833	5
0	14	6.036539546833	5
0	16	7.899532782067	6
0	16	7.899532782067	6
0	16	7.899532782067	6
0	18	9.503664719094	7
0	18	9.503664719094	7
0	18	9.503664719094	7
0	23	11.100998661867	8
0	23	11.100998661867	8
0	23	11.100998661867	8
0	25	12.912060766401	9
0	25	12.912060766401	9
0	25	12.912060766401	9
0	27	14.861038073352	10
0	27	14.861038073352	10
0	27	14.861038073352	10
0	32	16.80604191815	11
0	32	16.80604191815	11
0	32	16.80604191815	11
0	41	17.974014101936	12
0	41	17.974014101936	12
0	41	17.974014101936	12
0	43	19.18519465757	13
0	43	19.18519465757	13
0	43	19.18519465757	13
0	45	20.822804906326	14
0	45	20.822804906326	14
0	45	20.822804906326	14
0	47	22.063843511431	15
0	47	22.063843511431	15
0	47	22.063843511431	15
0	49	23.460743514974	16
0	49	23.460743514974	16
0	49	23.460743514974	16
0	54	24.683776035592	17
0	54	24.683776035592	17
0	54	24.683776035592	17
0	56	26.370443117259	18
0	56	26.370443117259	18
0	56	26.370443117259	18
0	58	27.453612212012	19
0	58	27.453612212012	19
0	58	27.453612212012	19
0	60	29.078543062009	20
0	60	29.078543062009	20
0	60	29.078543062009	20
0	62	31.007949716797	21
0	62	31.007949716797	21
0	62	31.007949716797	21
0	67	32.645506784938	22
0	67	32.645506784938	22
0	67	32.645506784938	22
0	69	34.592580811739	23
0	69	34.592580811739	23
0	69	34.592580811739	23
0	79	36.422768909171	24
0	79	36.422768909171	24
0	79	36.422768909171	24
0	81	37.507430521458	25
0	81	37.507430521458	25
0	81	37.507430521458	25
0	83	38.552078349901	26
0	83	38.552078349901	26
0	83	38.552078349901	26
0	85	40.284671801993	27
0	85	40.284671801993	27
0	85	40.284671801993	27
0	87	42.091688348365	28
0	87	42.091688348365	28
0	87	42.091688348365	28
0	89	43.695251858479	29
0	89	43.695251858479	29
0	89	43.695251858479	29
0	91	45.639202531579	30
0	91	45.639202531579	30
0	91	45.639202531579	30
0	93	46.768389313866	31
0	93	46.768389313866	31
0	93	46.768389313866	31
0	95	48.718743973796	32
0	95	48.718743973796	32
0	95	48.718743973796	32
0	97	50.486502014951	33
0	97	50.486502014951	33
0	97	50.486502014951	33
0	99	52.00717641638	34
0	99	52.00717641638	34
0	99	52.00717641638	34
0	111	53.691199631583	35
0	111	53.691199631583	35
0	111	53.691199631583	35
0	113	55.556974549931	36
0	113	55.556974549931	36
0	113	55.556974549931	36
0	115	56.710002802	37
0	115	56.710002802	37
0	115	56.710002802	37
0	117	58.182624113899	38
0	117	58.182624113899	38
0	117	58.182624113899	38
0	119	60.068421206823	39
0	119	60.068421206823	39
0	119	60.068421206823	39
0	121	61.505187496463	40
0	121	61.505187496463	40
0	121	61.505187496463	40
0	123	62.642113314629	41
0	123	62.642113314629	41
0	123	62.642113314629	41
0	125	64.061147355162	42
0	125	64.061147355162	42
0	125	64.061147355162	42
0	135	65.254386433088	43
0	135	65.254386433088	43
0	135	65.254386433088	43
0	137	66.399848760492	44
0	137	66.399848760492	44
0	137	66.399848760492	44
0	147	68.159378289864	45
0	147	68.159378289864	45
0	147	68.159378289864	45
0	149	70.140588214541	46
0	149	70.140588214541	46
0	149	70.140588214541	46
0	151	71.22497063029	47
0	151	71.22497063029	47
0	151	71.22497063029	47
0	153	72.240941906268	48
0	153	72.240941906268	48
0	153	72.240941906268	48
0	155	73.967804930093	49
0	155	73.967804930093	49
0	155	73.967804930093	49
0	157	75.625289567201	50
0	157	75.625289567201	50
0	157	75.625289567201	50
0	159	77.521981422244	51
0	159	77.521981422244	51
0	159	77.521981422244	51
0	161	78.963322125994	52
0	161	78.963322125994	52
0	161	78.963322125994	52
0	166	80.098067772029	53
0	166	80.098067772029	53
0	166	80.098067772029	53
0	178	81.72976001507	54
0	178	81.72976001507	54
0	178	81.72976001507	54
0	185	83.720556832071	55
0	185	83.720556832071	55
0	185	83.720556832071	55
0	190	85.494528458606	56
0	190	85.494528458606	56
0	190	85.494528458606	56
0	192	86.860864596594	57
0	192	86.860864596594	57
0	192	86.860864596594	57
0	194	88.528976848269	58
0	194	88.528976848269	58
0	194	88.528976848269	58
0	196	89.85155182836	59
0	196	89.85155182836	59
0	196	89.85155182836	59
0	203	91.728629732191	60
0	203	91.728629732191	60
0	203	91.728629732191	60
0	205	93.584813500674	61
0	205	93.584813500674	61
0	205	93.584813500674	61
0	207	94.990027064843	62
0	207	94.990027064843	62
0	207	94.990027064843	62
0	209	96.9458316608	63
0	209	96.9458316608	63
0	209	96.9458316608	63
0	211	98.259198286956	64
0	211	98.259198286956	64
0	211	98.259198286956	64
0	216	99.591693451082	65
0	216	99.591693451082	65
0	216	99.591693451082	65
0	218	100.85749077719	66
0	218	100.85749077719	66
0	218	100.85749077719	66
0	220	102.395272446715	67
0	220	102.395272446715	67
0	220	102.395272446715	67
0	222	104.18472495504	68
0	222	104.18472495504	68
0	222	104.18472495504	68
0	224	105.808878197719	69
0	224	105.808878197719	69
0	224	105.808878197719	69
0	236	107.20054625572	70
0	236	107.20054625572	70
0	236	107.20054625572	70
0	238	108.606305469678	71
0	238	108.606305469678	71
0	238	108.606305469678	71
0	240	109.837051412708	72
0	240	109.837051412708	72
0	240	109.837051412708	72
0	245	111.122296006338	73
0	245	111.122296006338	73
0	245	111.122296006338	73
0	247	112.245523898083	74
0	247	112.245523898083	74
0	247	112.245523898083	74
0	249	114.108871020529	75
0	249	114.108871020529	75
0	249	114.108871020529	75
0	254	115.672024250648	76
0	254	115.672024250648	76
0	254	115.672024250648	76
0	259	116.93386647167	77
0	259	116.93386647167	77
0	259	116.93386647167	77
0	261	118.895619789989	78
0	261	118.895619789989	78
0	261	118.895619789989	78
0	263	120.188480550343	79
0	263	120.188480550343	79
0	263	120.188480550343	79
0	265	121.947966691492	80
0	265	121.947966691492	80
0	265	121.947966691492	80
0	272	123.588527610911	81
0	272	123.588527610911	81
0	272	123.588527610911	81
0	274	125.025551084815	82
0	274	125.025551084815	82
0	274	125.025551084815	82
0	276	126.817551663764	83
0	276	126.817551663764	83
0	276	126.817551663764	83
0	281	128.097005263822	84
0	281	128.097005263822	84
0	281	128.097005263822	84
0	283	129.293029657252	85
0	283	129.293029657252	85
0	283	129.293029657252	85
0	285	130.335928186228	86
0	285	130.335928186228	86
0	285	130.335928186228	86
0	287	131.51944817385	87
0	287	131.51944817385	87
0	287	131.51944817385	87
0	289	133.086817141309	88
0	289	133.086817141309	88
0	289	133.086817141309	88
0	291	134.251978916268	89
0	291	134.251978916268	89
0	291	134.251978916268	89
0	296	135.334686527181	90
0	296	135.334686527181	90
0	296	135.334686527181	90
0	303	136.839546379786	91
0	303	136.839546379786	91
0	303	136.839546379786	91
0	308	138.176726211248	92
0	308	138.176726211248	92
0	308	138.176726211248	92
0	310	140.06573670396	93
0	310	140.06573670396	93
0	310	140.06573670396	93
0	317	141.491754457973	94
0	317	141.491754457973	94
0	317	141.491754457973	94
0	319	143.112323708287	95
0	319	143.112323708287	95
0	319	143.112323708287	95
0	326	144.779778237375	96
0	326	144.779778237375	96
0	326	144.779778237375	96
0	328	146.661179832569	97
0	328	146.661179832569	97
0	328	146.661179832569	97
0	330	148.537961339266	98
0	330	148.537961339266	98
0	330	148.537961339266	98
0	335	150.028897499586	99
0	335	150.028897499586	99
0	335	150.028897499586	99
0	344	151.457052480117	100
0	344	151.457052480117	100
0	344	151.457052480117	100
0	349	153.41865566458	101
0	349	153.41865566458	101
0	349	153.41865566458	101
0	354	154.570144913545	102
0	354	154.570144913545	102
0	354	154.570144913545	102
0	356	155.842589429965	103
0	356	155.842589429965	103
0	356	155.842589429965	103
0	358	157.319442297252	104
0	358	157.319442297252	104
0	358	157.319442297252	104
0	363	158.962381696481	105
0	363	158.962381696481	105
0	363	158.962381696481	105
0	365	160.08186361302	106
0	365	160.08186361302	106
0	365	160.08186361302	106
0	367	161.440096489073	107
0	367	161.440096489073	107
0	367	161.440096489073	107
0	369	162.555725142977	108
0	369	162.555725142977	108
0	369	162.555725142977	108
0	371	164.464547628456	109
0	371	164.464547628456	109
0	371	164.464547628456	109
0	373	165.491648030852	110
0	373	165.491648030852	110
0	373	165.491648030852	110
0	378	167.402404326399	111
0	378	167.402404326399	111
0	378	167.402404326399	111
0	380	168.837680636824	112
0	380	168.837680636824	112
0	380	168.837680636824	112
0	382	169.994774104248	113
0	382	169.994774104248	113
0	382	169.994774104248	113
0	384	171.933603014716	114
0	384	171.933603014716	114
0	384	171.933603014716	114
0	386	173.678902222927	115
0	386	173.678902222927	115
0	386	173.678902222927	115
0	388	175.527128553869	116
0	388	175.527128553869	116
0	388	175.527128553869	116
0	390	176.924976395596	117
0	390	176.924976395596	117
0	390	176.924976395596	117
0	400	178.833485876363	118
0	400	178.833485876363	118
0	400	178.833485876363	118
0	405	180.690979112325	119
0	405	180.690979112325	119
0	405	180.690979112325	119
0	407	181.748560451356	120
0	407	181.748560451356	120
0	407	181.748560451356	120
0	409	183.703626388836	121
0	409	183.703626388836	121
0	409	183.703626388836	121
0	411	185.499539194548	122
0	411	185.499539194548	122
0	411	185.499539194548	122
0	420	187.202669072583	123
0	420	187.202669072583	123
0	420	187.202669072583	123
0	425	188.317002615811	124
0	425	188.317002615811	124
0	425	188.317002615811	124
0	430	189.942143806409	125
0	430	189.942143806409	125
0	430	189.942143806409	125
0	437	191.515110196233	126
0	437	191.515110196233	126
0	437	191.515110196233	126
0	439	193.318606197521	127
0	439	193.318606197521	127
0	439	193.318606197521	127
0	441	194.712695003873	128
0	441	194.712695003873	128
0	441	194.712695003873	128
0	446	196.284617507285	129
0	446	196.284617507285	129
0	446	196.284617507285	129
0	453	197.726077027772	130
0	453	197.726077027772	130
0	453	197.726077027772	130
0	458	198.807791048814	131
0	458	198.807791048814	131
0	458	198.807791048814	131
0	460	200.131512062312	132
0	460	200.131512062312	132
0	460	200.131512062312	132
0	462	201.666616331939	133
0	462	201.666616331939	133
0	462	201.666616331939	133
0	472	203.224791864086	134
0	472	203.224791864086	134
0	472	203.224791864086	134
0	474	204.789648969345	135
0	474	204.789648969345	135
0	474	204.789648969345	135
0	476	206.751323562268	136
0	476	206.751323562268	136
0	476	206.751323562268	136
0	478	208.367445550546	137
0	478	208.367445550546	137
0	478	208.367445550546	137
0	480	209.475329773653	138
0	480	209.475329773653	138
0	480	209.475329773653	138
0	482	211.049111647451	139
0	482	211.049111647451	139
0	482	211.049111647451	139
0	484	212.883228988772	140
0	484	212.883228988772	140
0	484	212.883228988772	140
0	486	214.798490753084	141
0	486	214.798490753084	141
0	486	214.798490753084	141
0	488	216.499297985494	142
0	488	216.499297985494	142
0	488	216.499297985494	142
0	490	217.730997514132	143
0	490	217.730997514132	143
0	490	217.730997514132	143
0	492	218.851928776748	144
0	492	218.851928776748	144
0	492	218.851928776748	144
0	494	220.507429843222	145
0	494	220.507429843222	145
0	494	220.507429843222	145
0	496	221.946904030781	146
0	496	221.946904030781	146
0	496	221.946904030781	146
0	501	223.754641984043	147
0	501	223.754641984043	147
0	501	223.754641984043	147
0	506	225.391894095031	148
0	506	225.391894095031	148
0	506	225.391894095031	148
0	508	226.609847282445	149
0	508	226.609847282445	149
0	508	226.609847282445	149
0	510	228.088197812824	150
0	510	228.088197812824	150
0	510	228.088197812824	150
0	517	229.185048235268	151
0	517	229.185048235268	151
0	517	229.185048235268	151
0	522	230.451950532538	152
0	522	230.451950532538	152
0	522	230.451950532538	152
0	524	231.556871999907	153
0	524	231.556871999907	153
0	524	231.556871999907	153
0	529	233.320864048474	154
0	529	233.320864048474	154
0	529	233.320864048474	154
0	531	234.977874098266	155
0	531	234.977874098266	155
0	531	234.977874098266	155
0	533	236.743117494662	156
0	533	236.743117494662	156
0	533	236.743117494662	156
0	535	238.727359434277	157
0	535	238.727359434277	157
0	535	238.727359434277	157
1	4	2.035777949758	1
1	4	2.035777949758	2
1	4	2.035777949758	3
1	19	9.688100296223	4
1	19	9.688100296223	5
1	19	9.688100296223	6
1	28	15.120436210359	7
1	28	15.120436210359	8
1	28	15.120436210359	9
1	33	16.949455552802	10
1	33	16.949455552802	11
1	33	16.949455552802	12
1	50	23.689287577029	13
1	50	23.689287577029	14
1	50	23.689287577029	15
1	63	31.162816568056	16
1	63	31.162816568056	17
1	63	31.162816568056	18
1	70	34.762558774451	19
1	70	34.762558774451	20
1	70	34.762558774451	21
1	100	52.175508823985	22
1	100	52.175508823985	23
1	100	52.175508823985	24
1	126	64.342607508345	25
1	126	64.342607508345	26
1	126	64.342607508345	27
1	138	66.56851972776	28
1	138	66.56851972776	29
1	138	66.56851972776	30
1	162	79.125091703624	31
1	162	79.125091703624	32
1	162	79.125091703624	33
1	167	80.385036482857	34
1	167	80.385036482857	35
1	167	80.385036482857	36
1	179	81.947175443595	37
1	179	81.947175443595	38
1	179	81.947175443595	39
1	186	83.988146242263	40
1	186	83.988146242263	41
1	186	83.988146242263	42
1	197	90.139257090966	43
1	197	90.139257090966	44
1	197	90.139257090966	45
1	212	98.557320501773	46
1	212	98.557320501773	47
1	212	98.557320501773	48
1	225	106.035122544726	49
1	225	106.035122544726	50
1	225	106.035122544726	51
1	241	109.957014039741	52
1	241	109.957014039741	53
1	241	109.957014039741	54
1	250	114.330521557723	55
1	250	114.330521557723	56
1	250	114.330521557723	57
1	255	115.852672655769	58
1	255	115.852672655769	59
1	255	115.852672655769	60
1	266	122.243388695241	61
1	266	122.243388695241	62
1	266	122.243388695241	63
1	277	127.117175177335	64
1	277	127.117175177335	65
1	277	127.117175177335	66
1	292	134.417238488382	67
1	292	134.417238488382	68
1	292	134.417238488382	69
1	297	135.52499115181	70
1	297	135.52499115181	71
1	297	135.52499115181	72
1	304	137.025869206604	73
1	304	137.025869206604	74
1	304	137.025869206604	75
1	311	140.253020310939	76
1	311	140.253020310939	77
1	311	140.253020310939	78
1	320	143.235427900771	79
1	320	143.235427900771	80
1	320	143.235427900771	81
1	331	148.811338781889	82
1	331	148.811338781889	83
1	331	148.811338781889	84
1	336	150.178220474165	85
1	336	150.178220474165	86
1	336	150.178220474165	87
1	345	151.627743266413	88
1	345	151.627743266413	89
1	345	151.627743266413	90
1	350	153.565726785056	91
1	350	153.565726785056	92
1	350	153.565726785056	93
1	359	157.609573280592	94
1	359	157.609573280592	95
1	359	157.609573280592	96
1	374	165.708576917297	97
1	374	165.708576917297	98
1	374	165.708576917297	99
1	391	177.117010075815	100
1	391	177.117010075815	101
1	391	177.117010075815	102
1	401	178.998285242677	103
1	401	178.998285242677	104
1	401	178.998285242677	105
1	412	185.609687564488	106
1	412	185.609687564488	107
1	412	185.609687564488	108
1	421	187.427836474226	109
1	421	187.427836474226	110
1	421	187.427836474226	111
1	426	188.43522590811	112
1	426	188.43522590811	113
1	426	188.43522590811	114
1	431	190.147629165215	115
1	431	190.147629165215	116
1	431	190.147629165215	117
1	442	194.956505378526	118
1	442	194.956505378526	119
1	442	194.956505378526	120
1	447	196.466939086071	121
1	447	196.466939086071	122
1	447	196.466939086071	123
1	454	197.963080168347	124
1	454	197.963080168347	125
1	454	197.963080168347	126
1	463	201.95926405396	127
1	463	201.95926405396	128
1	463	201.95926405396	129
1	497	222.100654604562	130
1	497	222.100654604562	131
1	497	222.100654604562	132
1	502	224.053595399583	133
1	502	224.053595399583	134
1	502	224.053595399583	135
1	511	228.213934283184	136
1	511	228.213934283184	137
1	511	228.213934283184	138
1	518	229.451287694294	139
1	518	229.451287694294	140
1	518	229.451287694294	141
1	525	231.710329517978	142
1	525	231.710329517978	143
1	525	231.710329517978	144
2	4	2.035777949758	1
2	19	9.688100296223	2
2	28	15.120436210359	3
2	33	16.949455552802	4
2	50	23.689287577029	5
2	63	31.162816568056	6
2	70	34.762558774451	7
2	100	52.175508823985	8
2	126	64.342607508345	9
2	138	66.56851972776	10
2	143	67.045480342467	11
2	162	79.125091703624	12
2	167	80.385036482857	13
2	177	81.09719650842	14
2	179	81.947175443595	15
2	186	83.988146242263	16
2	197	90.139257090966	17
2	212	98.557320501773	18
2	225	106.035122544726	19
2	241	109.957014039741	20
2	250	114.330521557723	21
2	255	115.852672655769	22
2	266	122.243388695241	23
2	277	127.117175177335	24
2	292	134.417238488382	25
2	297	135.52499115181	26
2	304	137.025869206604	27
2	311	140.253020310939	28
2	315	140.696379062246	29
2	320	143.235427900771	30
2	331	148.811338781889	31
2	336	150.178220474165	32
2	340	150.563371746407	33
2	341	150.582408285273	34
2	345	151.627743266413	35
2	350	153.565726785056	36
2	359	157.609573280592	37
2	374	165.708576917297	38
2	391	177.117010075815	39
2	401	178.998285242677	40
2	412	185.609687564488	41
2	417	185.964708561383	42
2	421	187.427836474226	43
2	426	188.43522590811	44
2	431	190.147629165215	45
2	435	190.598266428154	46
2	442	194.956505378526	47
2	447	196.466939086071	48
2	454	197.963080168347	49
2	463	201.95926405396	50
2	467	202.477732949598	51
2	497	222.100654604562	52
2	502	224.053595399583	53
2	511	228.213934283184	54
2	518	229.451287694294	55
2	525	231.710329517978	56
3	7	2.278346426382	1
3	7	2.278346426382	2
3	36	17.219725895352	3
3	36	17.219725895352	4
3	103	52.462088858032	5
3	103	52.462088858032	6
3	128	64.571085587697	7
3	128	64.571085587697	8
3	173	80.952813189241	9
3	173	80.952813189241	10
3	228	106.284681165242	11
3	228	106.284681165242	12
3	314	140.501761223887	13
3	314	140.501761223887	14
3	323	143.494503940557	15
3	323	143.494503940557	16
3	339	150.44899712505	17
3	339	150.44899712505	18
3	393	177.368364278792	19
3	393	177.368364278792	20
3	415	185.885168073802	21
3	415	185.885168073802	22
3	434	190.429946837529	23
3	434	190.429946837529	24
3	449	196.742692042817	25
3	449	196.742692042817	26
3	466	202.252306665742	27
3	466	202.252306665742	28
3	514	228.482622140357	29
3	514	228.482622140357	30
4	7	2.278346426382	1
4	36	17.219725895352	2
4	103	52.462088858032	3
4	128	64.571085587697	4
4	173	80.952813189241	5
4	228	106.284681165242	6
4	314	140.501761223887	7
4	323	143.494503940557	8
4	339	150.44899712505	9
4	393	177.368364278792	10
4	415	185.885168073802	11
4	434	190.429946837529	12
4	449	196.742692042817	13
4	466	202.252306665742	14
4	514	228.482622140357	15
5	34	17.137059885585	1
5	34	17.137059885585	2
5	73	35.04444561656	3
5	73	35.04444561656	4
5	102	52.394120685427	5
5	102	52.394120685427	6
5	139	66.756158816474	7
5	139	66.756158816474	8
5	169	80.572484601361	9
5	169	80.572484601361	10
5	181	82.082778438699	11
5	181	82.082778438699	12
5	198	90.302554466071	13
5	198	90.302554466071	14
5	227	106.233953714315	15
5	227	106.233953714315	16
5	268	122.436261186149	17
5	268	122.436261186149	18
5	300	135.755126354283	19
5	300	135.755126354283	20
5	338	150.411920268919	21
5	338	150.411920268919	22
5	413	185.731397091719	23
5	413	185.731397091719	24
6	34	17.137059885585	1
6	73	35.04444561656	2
6	102	52.394120685427	3
6	139	66.756158816474	4
6	145	67.241622769069	5
6	169	80.572484601361	6
6	181	82.082778438699	7
6	198	90.302554466071	8
6	227	106.233953714315	9
6	233	106.659287630667	10
6	268	122.436261186149	11
6	300	135.755126354283	12
6	338	150.411920268919	13
6	413	185.731397091719	14
7	35	17.198797784231	1
7	180	82.071169395026	2
7	199	90.362641089616	3
7	226	106.202572341375	4
7	252	114.479046917465	5
7	267	122.372493239098	6
7	337	150.384323816636	7
7	351	153.744503387231	8
7	498	222.265329148906	9
7	505	224.303716917987	10
7	513	228.415911004229	11
7	519	229.683238228541	12
7	528	231.919342381756	13
8	75	35.225965315983	1
8	75	35.225965315983	2
8	75	35.225965315983	3
8	106	52.703121238873	4
8	106	52.703121238873	5
8	106	52.703121238873	6
8	130	64.776588721526	7
8	130	64.776588721526	8
8	130	64.776588721526	9
8	142	67.043179730498	10
8	142	67.043179730498	11
8	142	67.043179730498	12
8	171	80.749772253106	13
8	171	80.749772253106	14
8	171	80.749772253106	15
8	232	106.4859309185	16
8	232	106.4859309185	17
8	232	106.4859309185	18
8	395	177.509145083126	19
8	395	177.509145083126	20
8	395	177.509145083126	21
8	468	202.505069521308	22
8	468	202.505069521308	23
8	468	202.505069521308	24
9	75	35.225965315983	1
9	106	52.703121238873	2
9	130	64.776588721526	3
9	142	67.043179730498	4
9	171	80.749772253106	5
9	176	81.089257731144	6
9	232	106.4859309185	7
9	395	177.509145083126	8
9	468	202.505069521308	9
10	78	35.499558034404	1
10	108	52.857990055441	2
10	132	64.952604475673	3
10	146	67.259858738675	4
10	175	81.025146759972	5
10	235	106.775943973803	6
10	397	177.696870486644	7
10	471	202.764608636071	8

