file 2361724 1697025449                                         
version 3
run General-0-20231011-13:57:25-6857
attr configname General
attr datetime 20231011-13:57:25
attr datetimef 20231011-135725
attr experiment General
attr inifile omnetpp.ini
attr iterationvars ""
attr iterationvarsd ""
attr iterationvarsf ""
attr measurement ""
attr network Reliability
attr processid 6857
attr repetition 0
attr replication #0
attr resultdir results
attr runnumber 0
attr seedset 0
config network Reliability
config Reliability.node[*].transmissionTime "uniform(1s, 2s)"
config Reliability.node[*].delayTime "uniform(0.01s, 0.2s)"
config Reliability.node[*].lossProbability 0
config record-eventlog true
config sim-time-limit 240s
config repeat 5

vector 0 Reliability.node[0] txVector ETV
vector 1 Reliability.node[0] rxVector ETV
vector 2 Reliability.node[1] rxVector ETV
vector 3 Reliability.node[1] txVector ETV
vector 4 Reliability.node[2] rxVector ETV
vector 5 Reliability.node[2] txVector ETV
vector 6 Reliability.node[3] rxVector ETV
vector 7 Reliability.node[3] txVector ETV
vector 8 Reliability.node[4] rxVector ETV
vector 9 Reliability.node[4] txVector ETV
vector 10 Reliability.node[5] rxVector ETV
0	1138 979138 0 19588 0 214.150874195511 32768 1 32417 530258919 11455145783717
0	980276 434013 19588 27718 214.150874195511 239.995173998498 14051 32418 46360 553438425 22026442833429
1	1414289 700805 1 27718 0.114274565438 239.995173998498 23409 1 22950 267834622 4094944492382
2	2115094 89640 2 27709 0.384435110221 239.958077219809 3100 1 2896 4438311 8544062623
3	2204734 90434 2 27709 0.384435110221 239.958077219809 3100 3 8688 13314933 76896563607
4	2295168 13624 3 27558 0.892398024145 239.53046022981 488 1 459 111553 34190543
5	2308792 13682 3 27558 0.892398024145 239.53046022981 488 2 918 223106 136762172
6	2322474 13622 4 27600 0.949848050521 239.638490884258 488 1 459 111553 34189627
7	2336096 13680 4 27600 0.949848050521 239.638490884258 488 2 918 223106 136758508
8	2349776 5501 7 27618 1.927515930158 239.69138935789 204 1 102 10512 718422
9	2355277 5645 7 27618 1.927515930158 239.69138935789 204 3 306 31536 6465798
10	2360922 801 16 27195 4.025459616667 238.548646645311 29 1 29 435 8555

