file 2233716 1697025459                                         
version 3
run General-3-20231011-13:57:36-6857
attr configname General
attr datetime 20231011-13:57:36
attr datetimef 20231011-135736
attr experiment General
attr inifile omnetpp.ini
attr iterationvars ""
attr iterationvarsd ""
attr iterationvarsf ""
attr measurement ""
attr network Reliability
attr processid 6857
attr repetition 3
attr replication #3
attr resultdir results
attr runnumber 3
attr seedset 3
config network Reliability
config Reliability.node[*].transmissionTime "uniform(1s, 2s)"
config Reliability.node[*].delayTime "uniform(0.01s, 0.2s)"
config Reliability.node[*].lossProbability 0
config record-eventlog true
config sim-time-limit 240s
config repeat 5

vector 0 Reliability.node[0] txVector ETV
vector 1 Reliability.node[0] rxVector ETV
vector 2 Reliability.node[1] rxVector ETV
vector 3 Reliability.node[1] txVector ETV
vector 4 Reliability.node[2] rxVector ETV
vector 5 Reliability.node[2] txVector ETV
vector 6 Reliability.node[3] rxVector ETV
vector 7 Reliability.node[3] txVector ETV
vector 8 Reliability.node[4] rxVector ETV
vector 9 Reliability.node[4] txVector ETV
vector 10 Reliability.node[5] rxVector ETV
0	1138 979323 0 19635 0 218.109364298186 32768 1 32423 530437471 11462373136669
0	980461 353581 19635 26284 218.109364298186 239.996549174839 11449 32424 43784 436248830 16745817161712
1	1334042 660685 1 26284 0.114651601831 239.996549174839 22108 1 21675 238939210 3450520764328
2	1994727 87541 2 26281 0.383851289876 239.98693051686 3029 1 2829 4237741 7971043539
3	2082268 88341 2 26281 0.383851289876 239.98693051686 3029 3 8487 12713223 71739391851
4	2170609 12830 4 26274 0.884759823934 239.968882398975 460 1 433 99139 28632821
5	2183439 12889 4 26274 0.884759823934 239.968882398975 460 2 866 198278 114531284
6	2196328 12831 5 26262 0.89587173163 239.943836734366 460 1 433 99138 28632454
7	2209159 12890 5 26262 0.89587173163 239.943836734366 460 2 866 198276 114529816
8	2222049 5391 7 26270 1.813380857905 239.95810415648 200 1 100 10107 677883
9	2227440 5535 7 26270 1.813380857905 239.95810415648 200 3 300 30321 6100947
10	2232975 740 13 24739 3.652438196202 235.323123007633 27 1 27 378 6930

