version 3
run General-0-20231017-23:02:20-11995
attr configname General
attr datetime 20231017-23:02:20
attr datetimef 20231017-230220
attr experiment General
attr inifile omnetpp.ini
attr iterationvars ""
attr iterationvarsd ""
attr iterationvarsf ""
attr measurement ""
attr network Reliability
attr processid 11995
attr repetition 0
attr replication #0
attr resultdir results
attr runnumber 0
attr seedset 0
config network Reliability
config Reliability.node[*].transmissionTime "uniform(1s, 2s)"
config Reliability.node[*].delayTime "uniform(0.01s, 0.2s)"
config Reliability.node[*].lossProbability 0.7
config record-eventlog true
config sim-time-limit 240s
config repeat 5

vector 0 Reliability.node[0] txVector ETV
vector 1 Reliability.node[1] txVector ETV
vector 2 Reliability.node[1] rxVector ETV
vector 3 Reliability.node[3] txVector ETV
vector 4 Reliability.node[3] rxVector ETV
vector 5 Reliability.node[0] rxVector ETV
vector 6 Reliability.node[2] txVector ETV
vector 7 Reliability.node[2] rxVector ETV
vector 8 Reliability.node[4] txVector ETV
vector 9 Reliability.node[4] rxVector ETV
vector 10 Reliability.node[5] rxVector ETV
0	1	0.114274565438	1
0	1	0.114274565438	1
0	1	0.114274565438	1
0	8	1.82946393041	2
0	8	1.82946393041	2
0	8	1.82946393041	2
0	15	2.886176906136	3
0	15	2.886176906136	3
0	15	2.886176906136	3
0	17	3.957212964847	4
0	17	3.957212964847	4
0	17	3.957212964847	4
0	19	5.605384841404	5
0	19	5.605384841404	5
0	19	5.605384841404	5
0	31	7.438004684244	6
0	31	7.438004684244	6
0	31	7.438004684244	6
0	33	8.959853012423	7
0	33	8.959853012423	7
0	33	8.959853012423	7
0	35	10.433453435154	8
0	35	10.433453435154	8
0	35	10.433453435154	8
0	40	12.207687121659	9
0	40	12.207687121659	9
0	40	12.207687121659	9
0	42	13.357361985446	10
0	42	13.357361985446	10
0	42	13.357361985446	10
0	44	14.974295984098	11
0	44	14.974295984098	11
0	44	14.974295984098	11
0	46	16.876894455479	12
0	46	16.876894455479	12
0	46	16.876894455479	12
0	48	18.236402357539	13
0	48	18.236402357539	13
0	48	18.236402357539	13
0	50	20.138750935748	14
0	50	20.138750935748	14
0	50	20.138750935748	14
0	55	21.198976402247	15
0	55	21.198976402247	15
0	55	21.198976402247	15
0	57	22.949662541115	16
0	57	22.949662541115	16
0	57	22.949662541115	16
0	59	24.313373314525	17
0	59	24.313373314525	17
0	59	24.313373314525	17
0	61	25.351798740058	18
0	61	25.351798740058	18
0	61	25.351798740058	18
0	68	27.340172571904	19
0	68	27.340172571904	19
0	68	27.340172571904	19
0	70	28.814870077028	20
0	70	28.814870077028	20
0	70	28.814870077028	20
0	72	29.97383966351	21
0	72	29.97383966351	21
0	72	29.97383966351	21
0	74	31.648591985768	22
0	74	31.648591985768	22
0	74	31.648591985768	22
0	81	32.786774935276	23
0	81	32.786774935276	23
0	81	32.786774935276	23
0	88	34.758719934226	24
0	88	34.758719934226	24
0	88	34.758719934226	24
0	93	36.041526893695	25
0	93	36.041526893695	25
0	93	36.041526893695	25
0	95	37.922002786846	26
0	95	37.922002786846	26
0	95	37.922002786846	26
0	97	38.986150287866	27
0	97	38.986150287866	27
0	97	38.986150287866	27
0	99	40.551339153509	28
0	99	40.551339153509	28
0	99	40.551339153509	28
0	101	41.816728644614	29
0	101	41.816728644614	29
0	101	41.816728644614	29
0	103	43.733451601193	30
0	103	43.733451601193	30
0	103	43.733451601193	30
0	105	45.309398096363	31
0	105	45.309398096363	31
0	105	45.309398096363	31
0	107	46.587116660393	32
0	107	46.587116660393	32
0	107	46.587116660393	32
0	112	48.254527036642	33
0	112	48.254527036642	33
0	112	48.254527036642	33
0	114	49.65234778829	34
0	114	49.65234778829	34
0	114	49.65234778829	34
0	116	50.672455338837	35
0	116	50.672455338837	35
0	116	50.672455338837	35
0	118	52.042263434577	36
0	118	52.042263434577	36
0	118	52.042263434577	36
0	120	53.720079973881	37
0	120	53.720079973881	37
0	120	53.720079973881	37
0	132	55.423817254678	38
0	132	55.423817254678	38
0	132	55.423817254678	38
0	134	56.540019164635	39
0	134	56.540019164635	39
0	134	56.540019164635	39
0	136	58.353816984296	40
0	136	58.353816984296	40
0	136	58.353816984296	40
0	145	60.029256061493	41
0	145	60.029256061493	41
0	145	60.029256061493	41
0	147	61.453111105441	42
0	147	61.453111105441	42
0	147	61.453111105441	42
0	149	62.927978626993	43
0	149	62.927978626993	43
0	149	62.927978626993	43
0	154	64.229553443222	44
0	154	64.229553443222	44
0	154	64.229553443222	44
0	156	66.108005634351	45
0	156	66.108005634351	45
0	156	66.108005634351	45
0	158	67.40628796218	46
0	158	67.40628796218	46
0	158	67.40628796218	46
0	160	68.760334626614	47
0	160	68.760334626614	47
0	160	68.760334626614	47
0	162	70.334659882431	48
0	162	70.334659882431	48
0	162	70.334659882431	48
0	164	72.303621648421	49
0	164	72.303621648421	49
0	164	72.303621648421	49
0	166	73.735040082905	50
0	166	73.735040082905	50
0	166	73.735040082905	50
0	168	74.876303985791	51
0	168	74.876303985791	51
0	168	74.876303985791	51
0	180	76.312168905122	52
0	180	76.312168905122	52
0	180	76.312168905122	52
0	182	77.927728472587	53
0	182	77.927728472587	53
0	182	77.927728472587	53
0	187	79.706779490767	54
0	187	79.706779490767	54
0	187	79.706779490767	54
0	194	80.775946480997	55
0	194	80.775946480997	55
0	194	80.775946480997	55
0	196	82.006688822603	56
0	196	82.006688822603	56
0	196	82.006688822603	56
0	201	83.366666881677	57
0	201	83.366666881677	57
0	201	83.366666881677	57
0	203	84.705651998131	58
0	203	84.705651998131	58
0	203	84.705651998131	58
0	205	85.724173792249	59
0	205	85.724173792249	59
0	205	85.724173792249	59
0	207	87.187624768431	60
0	207	87.187624768431	60
0	207	87.187624768431	60
0	212	88.532976446983	61
0	212	88.532976446983	61
0	212	88.532976446983	61
0	214	90.03300274078	62
0	214	90.03300274078	62
0	214	90.03300274078	62
0	216	91.610231326038	63
0	216	91.610231326038	63
0	216	91.610231326038	63
0	225	93.602627721691	64
0	225	93.602627721691	64
0	225	93.602627721691	64
0	227	94.788820727106	65
0	227	94.788820727106	65
0	227	94.788820727106	65
0	232	96.358394258965	66
0	232	96.358394258965	66
0	232	96.358394258965	66
0	234	97.41642342143	67
0	234	97.41642342143	67
0	234	97.41642342143	67
0	236	98.904261127424	68
0	236	98.904261127424	68
0	236	98.904261127424	68
0	243	100.600604613156	69
0	243	100.600604613156	69
0	243	100.600604613156	69
0	245	102.277686189472	70
0	245	102.277686189472	70
0	245	102.277686189472	70
0	250	104.174357479749	71
0	250	104.174357479749	71
0	250	104.174357479749	71
0	252	105.311577900624	72
0	252	105.311577900624	72
0	252	105.311577900624	72
0	257	107.069956552548	73
0	257	107.069956552548	73
0	257	107.069956552548	73
0	259	108.58966774478	74
0	259	108.58966774478	74
0	259	108.58966774478	74
0	261	110.462318402328	75
0	261	110.462318402328	75
0	261	110.462318402328	75
0	271	111.887769939689	76
0	271	111.887769939689	76
0	271	111.887769939689	76
0	273	113.845220795678	77
0	273	113.845220795678	77
0	273	113.845220795678	77
0	280	114.870883509129	78
0	280	114.870883509129	78
0	280	114.870883509129	78
0	285	116.678463774113	79
0	285	116.678463774113	79
0	285	116.678463774113	79
0	290	118.395323454015	80
0	290	118.395323454015	80
0	290	118.395323454015	80
0	292	119.56028232545	81
0	292	119.56028232545	81
0	292	119.56028232545	81
0	302	120.915895060481	82
0	302	120.915895060481	82
0	302	120.915895060481	82
0	304	122.208042591189	83
0	304	122.208042591189	83
0	304	122.208042591189	83
0	306	123.885305897876	84
0	306	123.885305897876	84
0	306	123.885305897876	84
0	308	124.901735529148	85
0	308	124.901735529148	85
0	308	124.901735529148	85
0	310	125.910975599273	86
0	310	125.910975599273	86
0	310	125.910975599273	86
0	315	127.69612850955	87
0	315	127.69612850955	87
0	315	127.69612850955	87
0	327	129.276575640154	88
0	327	129.276575640154	88
0	327	129.276575640154	88
0	337	131.121125717957	89
0	337	131.121125717957	89
0	337	131.121125717957	89
0	339	132.390605154291	90
0	339	132.390605154291	90
0	339	132.390605154291	90
0	341	133.527505428374	91
0	341	133.527505428374	91
0	341	133.527505428374	91
0	343	134.825347250171	92
0	343	134.825347250171	92
0	343	134.825347250171	92
0	345	136.336666232517	93
0	345	136.336666232517	93
0	345	136.336666232517	93
0	347	138.317365906045	94
0	347	138.317365906045	94
0	347	138.317365906045	94
0	349	140.179557420157	95
0	349	140.179557420157	95
0	349	140.179557420157	95
0	356	141.523162919639	96
0	356	141.523162919639	96
0	356	141.523162919639	96
0	366	142.755397061196	97
0	366	142.755397061196	97
0	366	142.755397061196	97
0	376	144.427444864142	98
0	376	144.427444864142	98
0	376	144.427444864142	98
0	378	145.729043498014	99
0	378	145.729043498014	99
0	378	145.729043498014	99
0	380	147.187558051742	100
0	380	147.187558051742	100
0	380	147.187558051742	100
0	382	148.870839385626	101
0	382	148.870839385626	101
0	382	148.870839385626	101
0	384	150.723474309159	102
0	384	150.723474309159	102
0	384	150.723474309159	102
0	389	152.103401260528	103
0	389	152.103401260528	103
0	389	152.103401260528	103
0	394	153.309995866225	104
0	394	153.309995866225	104
0	394	153.309995866225	104
0	396	154.897595502979	105
0	396	154.897595502979	105
0	396	154.897595502979	105
0	398	156.789645164817	106
0	398	156.789645164817	106
0	398	156.789645164817	106
0	405	157.986699442457	107
0	405	157.986699442457	107
0	405	157.986699442457	107
0	407	159.475109504148	108
0	407	159.475109504148	108
0	407	159.475109504148	108
0	409	161.434542848108	109
0	409	161.434542848108	109
0	409	161.434542848108	109
0	411	162.909832292547	110
0	411	162.909832292547	110
0	411	162.909832292547	110
0	413	164.3402347321	111
0	413	164.3402347321	111
0	413	164.3402347321	111
0	415	165.500101811097	112
0	415	165.500101811097	112
0	415	165.500101811097	112
0	417	167.181494323148	113
0	417	167.181494323148	113
0	417	167.181494323148	113
0	419	168.720717920067	114
0	419	168.720717920067	114
0	419	168.720717920067	114
0	421	170.11339360134	115
0	421	170.11339360134	115
0	421	170.11339360134	115
0	423	171.27326366802	116
0	423	171.27326366802	116
0	423	171.27326366802	116
0	425	173.177247619566	117
0	425	173.177247619566	117
0	425	173.177247619566	117
0	427	174.269507789595	118
0	427	174.269507789595	118
0	427	174.269507789595	118
0	429	176.151549204562	119
0	429	176.151549204562	119
0	429	176.151549204562	119
0	436	177.951927663369	120
0	436	177.951927663369	120
0	436	177.951927663369	120
0	438	179.70870630963	121
0	438	179.70870630963	121
0	438	179.70870630963	121
0	440	181.440103651334	122
0	440	181.440103651334	122
0	440	181.440103651334	122
0	442	182.600642473746	123
0	442	182.600642473746	123
0	442	182.600642473746	123
0	449	183.908928637003	124
0	449	183.908928637003	124
0	449	183.908928637003	124
0	456	185.484679794248	125
0	456	185.484679794248	125
0	456	185.484679794248	125
0	458	187.433977273835	126
0	458	187.433977273835	126
0	458	187.433977273835	126
0	460	188.858009525651	127
0	460	188.858009525651	127
0	460	188.858009525651	127
0	467	190.58570586269	128
0	467	190.58570586269	128
0	467	190.58570586269	128
0	472	191.770938187216	129
0	472	191.770938187216	129
0	472	191.770938187216	129
0	477	192.869416190621	130
0	477	192.869416190621	130
0	477	192.869416190621	130
0	482	194.483880897362	131
0	482	194.483880897362	131
0	482	194.483880897362	131
0	484	196.028471774033	132
0	484	196.028471774033	132
0	484	196.028471774033	132
0	486	197.249632685988	133
0	486	197.249632685988	133
0	486	197.249632685988	133
0	488	199.020721738071	134
0	488	199.020721738071	134
0	488	199.020721738071	134
0	490	200.032757961268	135
0	490	200.032757961268	135
0	490	200.032757961268	135
0	492	202.014397641488	136
0	492	202.014397641488	136
0	492	202.014397641488	136
0	494	203.988653858502	137
0	494	203.988653858502	137
0	494	203.988653858502	137
0	496	205.03431350047	138
0	496	205.03431350047	138
0	496	205.03431350047	138
0	501	206.197267924047	139
0	501	206.197267924047	139
0	501	206.197267924047	139
0	506	207.510021216779	140
0	506	207.510021216779	140
0	506	207.510021216779	140
0	508	208.756084400074	141
0	508	208.756084400074	141
0	508	208.756084400074	141
0	510	210.682963491961	142
0	510	210.682963491961	142
0	510	210.682963491961	142
0	512	212.107052479017	143
0	512	212.107052479017	143
0	512	212.107052479017	143
0	514	213.534886861996	144
0	514	213.534886861996	144
0	514	213.534886861996	144
0	521	215.241461569521	145
0	521	215.241461569521	145
0	521	215.241461569521	145
0	523	216.690544996488	146
0	523	216.690544996488	146
0	523	216.690544996488	146
0	525	218.5055114779	147
0	525	218.5055114779	147
0	525	218.5055114779	147
0	532	219.88727127815	148
0	532	219.88727127815	148
0	532	219.88727127815	148
0	542	221.838223886521	149
0	542	221.838223886521	149
0	542	221.838223886521	149
0	544	223.587012138994	150
0	544	223.587012138994	150
0	544	223.587012138994	150
0	546	225.382546885948	151
0	546	225.382546885948	151
0	546	225.382546885948	151
0	548	226.831838534058	152
0	548	226.831838534058	152
0	548	226.831838534058	152
0	560	228.717800799602	153
0	560	228.717800799602	153
0	560	228.717800799602	153
0	562	230.425718261239	154
0	562	230.425718261239	154
0	562	230.425718261239	154
0	564	231.496588040919	155
0	564	231.496588040919	155
0	564	231.496588040919	155
0	566	233.168495059789	156
0	566	233.168495059789	156
0	566	233.168495059789	156
0	568	234.585981431494	157
0	568	234.585981431494	157
0	568	234.585981431494	157
0	570	235.964307574632	158
0	570	235.964307574632	158
0	570	235.964307574632	158
0	577	237.347115633155	159
0	577	237.347115633155	159
0	577	237.347115633155	159
0	579	238.562644447743	160
0	579	238.562644447743	160
0	579	238.562644447743	160
1	2	0.336915042552	1
1	2	0.336915042552	2
1	2	0.336915042552	3
1	9	2.108900800744	4
1	9	2.108900800744	5
1	9	2.108900800744	6
1	20	5.785350733503	7
1	20	5.785350733503	8
1	20	5.785350733503	9
1	36	10.578856580617	10
1	36	10.578856580617	11
1	36	10.578856580617	12
1	51	20.267614202541	13
1	51	20.267614202541	14
1	51	20.267614202541	15
1	62	25.582310810157	16
1	62	25.582310810157	17
1	62	25.582310810157	18
1	75	31.818860317273	19
1	75	31.818860317273	20
1	75	31.818860317273	21
1	82	32.915033631488	22
1	82	32.915033631488	23
1	82	32.915033631488	24
1	89	34.952645009305	25
1	89	34.952645009305	26
1	89	34.952645009305	27
1	108	46.698894433725	28
1	108	46.698894433725	29
1	108	46.698894433725	30
1	121	53.881381487924	31
1	121	53.881381487924	32
1	121	53.881381487924	33
1	137	58.539153074676	34
1	137	58.539153074676	35
1	137	58.539153074676	36
1	150	63.12730374279	37
1	150	63.12730374279	38
1	150	63.12730374279	39
1	169	75.004783371847	40
1	169	75.004783371847	41
1	169	75.004783371847	42
1	183	78.061254269243	43
1	183	78.061254269243	44
1	183	78.061254269243	45
1	188	79.823091744179	46
1	188	79.823091744179	47
1	188	79.823091744179	48
1	197	82.262022045212	49
1	197	82.262022045212	50
1	197	82.262022045212	51
1	208	87.463793631222	52
1	208	87.463793631222	53
1	208	87.463793631222	54
1	217	91.765430960871	55
1	217	91.765430960871	56
1	217	91.765430960871	57
1	228	95.078251480928	58
1	228	95.078251480928	59
1	228	95.078251480928	60
1	237	99.181651993566	61
1	237	99.181651993566	62
1	237	99.181651993566	63
1	246	102.503024751053	64
1	246	102.503024751053	65
1	246	102.503024751053	66
1	253	105.465129571999	67
1	253	105.465129571999	68
1	253	105.465129571999	69
1	262	110.62429138865	70
1	262	110.62429138865	71
1	262	110.62429138865	72
1	274	114.044853595085	73
1	274	114.044853595085	74
1	274	114.044853595085	75
1	281	115.092372534742	76
1	281	115.092372534742	77
1	281	115.092372534742	78
1	286	116.821696459836	79
1	286	116.821696459836	80
1	286	116.821696459836	81
1	293	119.69400060702	82
1	293	119.69400060702	83
1	293	119.69400060702	84
1	311	126.179252837263	85
1	311	126.179252837263	86
1	311	126.179252837263	87
1	316	127.89839775231	88
1	316	127.89839775231	89
1	316	127.89839775231	90
1	328	129.442249494121	91
1	328	129.442249494121	92
1	328	129.442249494121	93
1	350	140.474412123293	94
1	350	140.474412123293	95
1	350	140.474412123293	96
1	357	141.780454678268	97
1	357	141.780454678268	98
1	357	141.780454678268	99
1	367	142.994105307844	100
1	367	142.994105307844	101
1	367	142.994105307844	102
1	385	150.915827714655	103
1	385	150.915827714655	104
1	385	150.915827714655	105
1	390	152.345830736473	106
1	390	152.345830736473	107
1	390	152.345830736473	108
1	399	156.925003554845	109
1	399	156.925003554845	110
1	399	156.925003554845	111
1	430	176.348683956298	112
1	430	176.348683956298	113
1	430	176.348683956298	114
1	443	182.861956853954	115
1	443	182.861956853954	116
1	443	182.861956853954	117
1	450	184.137047550228	118
1	450	184.137047550228	119
1	450	184.137047550228	120
1	461	189.017159498126	121
1	461	189.017159498126	122
1	461	189.017159498126	123
1	468	190.796757207266	124
1	468	190.796757207266	125
1	468	190.796757207266	126
1	473	192.06054547857	127
1	473	192.06054547857	128
1	473	192.06054547857	129
1	478	193.024479115808	130
1	478	193.024479115808	131
1	478	193.024479115808	132
1	497	205.203226352807	133
1	497	205.203226352807	134
1	497	205.203226352807	135
1	502	206.319675723229	136
1	502	206.319675723229	137
1	502	206.319675723229	138
1	515	213.801173156887	139
1	515	213.801173156887	140
1	515	213.801173156887	141
1	526	218.802754849674	142
1	526	218.802754849674	143
1	526	218.802754849674	144
1	533	220.090278049327	145
1	533	220.090278049327	146
1	533	220.090278049327	147
1	549	226.999687530913	148
1	549	226.999687530913	149
1	549	226.999687530913	150
1	571	236.093313664561	151
1	571	236.093313664561	152
1	571	236.093313664561	153
1	580	238.782827803807	154
1	580	238.782827803807	155
1	580	238.782827803807	156
2	2	0.336915042552	1
2	9	2.108900800744	2
2	14	2.502244724886	3
2	20	5.785350733503	4
2	36	10.578856580617	5
2	51	20.267614202541	6
2	62	25.582310810157	7
2	75	31.818860317273	8
2	79	32.111496710717	9
2	82	32.915033631488	10
2	89	34.952645009305	11
2	108	46.698894433725	12
2	121	53.881381487924	13
2	126	54.293176113875	14
2	131	54.716903313052	15
2	137	58.539153074676	16
2	142	58.950245560168	17
2	150	63.12730374279	18
2	169	75.004783371847	19
2	174	75.463066203288	20
2	183	78.061254269243	21
2	188	79.823091744179	22
2	192	80.138876594856	23
2	197	82.262022045212	24
2	208	87.463793631222	25
2	217	91.765430960871	26
2	228	95.078251480928	27
2	237	99.181651993566	28
2	246	102.503024751053	29
2	253	105.465129571999	30
2	262	110.62429138865	31
2	266	110.966226874606	32
2	274	114.044853595085	33
2	281	115.092372534742	34
2	286	116.821696459836	35
2	293	119.69400060702	36
2	311	126.179252837263	37
2	316	127.89839775231	38
2	321	128.371415823638	39
2	325	128.734858338887	40
2	328	129.442249494121	41
2	332	129.845620432828	42
2	350	140.474412123293	43
2	357	141.780454678268	44
2	367	142.994105307844	45
2	385	150.915827714655	46
2	390	152.345830736473	47
2	399	156.925003554845	48
2	404	157.305441109152	49
2	430	176.348683956298	50
2	443	182.861956853954	51
2	448	183.331970532957	52
2	450	184.137047550228	53
2	461	189.017159498126	54
2	468	190.796757207266	55
2	473	192.06054547857	56
2	478	193.024479115808	57
2	497	205.203226352807	58
2	502	206.319675723229	59
2	515	213.801173156887	60
2	520	214.247121627162	61
2	526	218.802754849674	62
2	533	220.090278049327	63
2	549	226.999687530913	64
2	558	227.803851185795	65
2	571	236.093313664561	66
2	580	238.782827803807	67
3	3	0.550442846255	1
3	3	0.550442846255	2
3	23	6.060653041102	3
3	23	6.060653041102	4
3	77	31.998918098761	5
3	77	31.998918098761	6
3	123	54.073706220056	7
3	123	54.073706220056	8
3	139	58.70866455778	9
3	139	58.70866455778	10
3	171	75.267960230288	11
3	171	75.267960230288	12
3	190	80.019264853426	13
3	190	80.019264853426	14
3	220	92.004458178321	15
3	220	92.004458178321	16
3	322	128.532488022789	17
3	322	128.532488022789	18
3	351	140.662572882192	19
3	351	140.662572882192	20
3	358	141.900605841989	21
3	358	141.900605841989	22
3	400	157.043479891336	23
3	400	157.043479891336	24
3	431	176.476441252716	25
3	431	176.476441252716	26
3	516	213.979676813158	27
3	516	213.979676813158	28
3	536	220.331334019766	29
3	536	220.331334019766	30
3	552	227.249981695071	31
3	552	227.249981695071	32
3	574	236.387194652352	33
3	574	236.387194652352	34
4	3	0.550442846255	1
4	23	6.060653041102	2
4	77	31.998918098761	3
4	123	54.073706220056	4
4	139	58.70866455778	5
4	171	75.267960230288	6
4	177	75.642709185428	7
4	190	80.019264853426	8
4	220	92.004458178321	9
4	322	128.532488022789	10
4	351	140.662572882192	11
4	358	141.900605841989	12
4	400	157.043479891336	13
4	431	176.476441252716	14
4	516	213.979676813158	15
4	536	220.331334019766	16
4	552	227.249981695071	17
4	574	236.387194652352	18
5	10	2.270705496702	1
5	22	6.043200517312	2
5	85	33.191890390513	3
5	109	46.833936027506	4
5	138	58.696614366935	5
5	153	63.362736715081	6
5	211	87.750129076827	7
5	249	102.801189150792	8
5	287	117.006947803554	9
5	297	119.982682677814	10
5	368	143.150725078254	11
5	499	205.434591086184	12
5	517	213.989995962224	13
5	581	238.944441830062	14
6	11	2.291754689795	1
6	11	2.291754689795	2
6	21	5.922017381213	3
6	21	5.922017381213	4
6	65	25.816340970756	5
6	65	25.816340970756	6
6	83	33.114077359168	7
6	83	33.114077359168	8
6	128	54.477692754204	9
6	128	54.477692754204	10
6	140	58.759594921095	11
6	140	58.759594921095	12
6	175	75.573942554238	13
6	175	75.573942554238	14
6	219	91.992084491853	15
6	219	91.992084491853	16
6	240	99.40900699821	17
6	240	99.40900699821	18
6	263	110.769562217858	19
6	263	110.769562217858	20
6	275	114.184055512745	21
6	275	114.184055512745	22
6	294	119.809786670514	23
6	294	119.809786670514	24
6	319	128.174933748371	25
6	319	128.174933748371	26
6	330	129.669646065597	27
6	330	129.669646065597	28
6	370	143.186213436911	29
6	370	143.186213436911	30
6	445	183.059003230686	31
6	445	183.059003230686	32
6	451	184.27699768173	33
6	451	184.27699768173	34
6	462	189.133487377133	35
6	462	189.133487377133	36
6	529	219.084695034678	37
6	529	219.084695034678	38
6	556	227.68917339406	39
6	556	227.68917339406	40
7	11	2.291754689795	1
7	21	5.922017381213	2
7	29	6.360990020212	3
7	65	25.816340970756	4
7	83	33.114077359168	5
7	128	54.477692754204	6
7	140	58.759594921095	7
7	175	75.573942554238	8
7	219	91.992084491853	9
7	240	99.40900699821	10
7	263	110.769562217858	11
7	275	114.184055512745	12
7	294	119.809786670514	13
7	300	120.088695534589	14
7	319	128.174933748371	15
7	324	128.619327633355	16
7	330	129.669646065597	17
7	370	143.186213436911	18
7	445	183.059003230686	19
7	451	184.27699768173	20
7	462	189.133487377133	21
7	529	219.084695034678	22
7	556	227.68917339406	23
8	24	6.122002908816	1
8	24	6.122002908816	2
8	24	6.122002908816	3
8	125	54.25896489292	4
8	125	54.25896489292	5
8	125	54.25896489292	6
8	173	75.397003338736	7
8	173	75.397003338736	8
8	173	75.397003338736	9
8	267	111.010184989687	10
8	267	111.010184989687	11
8	267	111.010184989687	12
8	295	119.937379940651	13
8	295	119.937379940651	14
8	295	119.937379940651	15
8	320	128.328957057218	16
8	320	128.328957057218	17
8	320	128.328957057218	18
8	333	129.943484923924	19
8	333	129.943484923924	20
8	333	129.943484923924	21
8	361	142.013256037643	22
8	361	142.013256037643	23
8	361	142.013256037643	24
8	371	143.368229853687	25
8	371	143.368229853687	26
8	371	143.368229853687	27
8	537	220.462959181209	28
8	537	220.462959181209	29
8	537	220.462959181209	30
8	554	227.480441257176	31
8	554	227.480441257176	32
8	554	227.480441257176	33
9	24	6.122002908816	1
9	125	54.25896489292	2
9	130	54.672646576125	3
9	173	75.397003338736	4
9	267	111.010184989687	5
9	295	119.937379940651	6
9	320	128.328957057218	7
9	333	129.943484923924	8
9	361	142.013256037643	9
9	371	143.368229853687	10
9	537	220.462959181209	11
9	554	227.480441257176	12
10	30	6.368923112618	1
10	127	54.411350402744	2
10	176	75.596160681353	3
10	270	111.287441534539	4
10	301	120.189738279819	5
10	323	128.617818821161	6
10	335	130.196663148797	7
10	365	142.290999437336	8
10	374	143.526896374448	9
10	539	220.598194031235	10
10	555	227.656709962438	11

