version 3
run General-3-20231011-13:57:36-6857
attr configname General
attr datetime 20231011-13:57:36
attr datetimef 20231011-135736
attr experiment General
attr inifile omnetpp.ini
attr iterationvars ""
attr iterationvarsd ""
attr iterationvarsf ""
attr measurement ""
attr network Reliability
attr processid 6857
attr repetition 3
attr replication #3
attr resultdir results
attr runnumber 3
attr seedset 3
config network Reliability
config Reliability.node[*].transmissionTime "uniform(1s, 2s)"
config Reliability.node[*].delayTime "uniform(0.01s, 0.2s)"
config Reliability.node[*].lossProbability 0
config record-eventlog true
config sim-time-limit 240s
config repeat 5

vector 0 Reliability.node[0] txVector ETV
vector 1 Reliability.node[0] rxVector ETV
vector 2 Reliability.node[1] rxVector ETV
vector 3 Reliability.node[1] txVector ETV
vector 4 Reliability.node[2] rxVector ETV
vector 5 Reliability.node[2] txVector ETV
vector 6 Reliability.node[3] rxVector ETV
vector 7 Reliability.node[3] txVector ETV
vector 8 Reliability.node[4] rxVector ETV
vector 9 Reliability.node[4] txVector ETV
vector 10 Reliability.node[5] rxVector ETV
0	0	0	1
0	1	0.114651601831	2
0	1	0.114651601831	3
0	3	0.810755009812	3
0	3	0.810755009812	4
0	10	1.954600644134	5
0	10	1.954600644134	6
0	11	2.247816949899	7
0	11	2.247816949899	8
0	12	3.170177656528	9
0	12	3.170177656528	10
0	16	3.924071853331	11
0	16	3.924071853331	12
0	19	5.08347910929	13
0	19	5.08347910929	14
0	20	5.183324298405	15
0	20	5.183324298405	16
0	22	6.538086874247	17
0	22	6.538086874247	18
0	23	6.963639060317	19
0	23	6.963639060317	20
0	26	8.203946543411	20
0	26	8.203946543411	21
0	28	8.256508899456	22
0	28	8.256508899456	23
0	29	8.939634488246	24
0	29	8.939634488246	25
0	32	9.317447932009	25
0	32	9.317447932009	26
0	33	9.628648153293	27
0	33	9.628648153293	28
0	34	9.970074647175	29
0	34	9.970074647175	30
0	35	10.164688990966	31
0	35	10.164688990966	32
0	38	10.609240705418	33
0	38	10.609240705418	34
0	39	11.282279005759	35
0	39	11.282279005759	36
0	40	11.556327548878	37
0	40	11.556327548878	38
0	41	11.696470072996	39
0	41	11.696470072996	40
0	42	11.975916747286	41
0	42	11.975916747286	42
0	43	12.728179446441	43
0	43	12.728179446441	44
0	46	13.02344756533	44
0	46	13.02344756533	45
0	47	13.153802248221	46
0	47	13.153802248221	47
0	49	13.264014172902	48
0	49	13.264014172902	49
0	50	13.665097163807	50
0	50	13.665097163807	51
0	52	14.215331177032	52
0	52	14.215331177032	53
0	53	14.285239913104	54
0	53	14.285239913104	55
0	54	14.545051902128	56
0	54	14.545051902128	57
0	55	14.571966541718	58
0	55	14.571966541718	59
0	56	15.315574025552	60
0	56	15.315574025552	61
0	57	15.35780205049	62
0	57	15.35780205049	63
0	58	15.422297312683	64
0	58	15.422297312683	65
0	59	15.672070885795	66
0	59	15.672070885795	67
0	60	15.721114017363	68
0	60	15.721114017363	69
0	62	16.254026655262	69
0	62	16.254026655262	70
0	66	16.545616875472	71
0	66	16.545616875472	72
0	70	17.067714055584	73
0	70	17.067714055584	74
0	71	17.08792192027	75
0	71	17.08792192027	76
0	72	17.213090559021	77
0	72	17.213090559021	78
0	73	17.247225016882	79
0	73	17.247225016882	80
0	75	18.093219715325	81
0	75	18.093219715325	82
0	76	18.264094633333	83
0	76	18.264094633333	84
0	77	18.321613929505	85
0	77	18.321613929505	86
0	78	18.442113533453	87
0	78	18.442113533453	88
0	83	18.998027258339	89
0	83	18.998027258339	90
0	84	19.013377772938	91
0	84	19.013377772938	92
0	86	19.562501487139	93
0	86	19.562501487139	94
0	87	19.582092964711	95
0	87	19.582092964711	96
0	88	19.806708152909	97
0	88	19.806708152909	98
0	89	19.945368823665	99
0	89	19.945368823665	100
0	90	20.036945356075	101
0	90	20.036945356075	102
0	93	20.42750469415	103
0	93	20.42750469415	104
0	95	20.524609876963	104
0	95	20.524609876963	105
0	97	20.814242997722	106
0	97	20.814242997722	107
0	98	20.95302437529	108
0	98	20.95302437529	109
0	99	21.061071263083	110
0	99	21.061071263083	111
0	102	21.225719900096	111
0	102	21.225719900096	112
0	104	21.584076110293	113
0	104	21.584076110293	114
0	105	21.68227963236	115
0	105	21.68227963236	116
0	106	21.901818335359	117
0	106	21.901818335359	118
0	107	22.15424892288	119
0	107	22.15424892288	120
0	108	22.264967122176	121
0	108	22.264967122176	122
0	110	22.723543237216	123
0	110	22.723543237216	124
0	111	22.786706167266	125
0	111	22.786706167266	126
0	112	22.817144044945	127
0	112	22.817144044945	128
0	113	22.878106624043	129
0	113	22.878106624043	130
0	115	23.33185289095	131
0	115	23.33185289095	132
0	117	23.650913877462	133
0	117	23.650913877462	134
0	118	23.779030370596	135
0	118	23.779030370596	136
0	119	23.883190395563	137
0	119	23.883190395563	138
0	120	23.923065769756	139
0	120	23.923065769756	140
0	121	24.063931437969	141
0	121	24.063931437969	142
0	123	24.357380763794	143
0	123	24.357380763794	144
0	124	24.360603662596	145
0	124	24.360603662596	146
0	125	24.614568971556	147
0	125	24.614568971556	148
0	126	25.314005414276	149
0	126	25.314005414276	150
0	127	25.381520901644	151
0	127	25.381520901644	152
0	128	25.463039968329	153
0	128	25.463039968329	154
0	129	25.499217773371	155
0	129	25.499217773371	156
0	131	25.566140748597	157
0	131	25.566140748597	158
0	132	25.900843571933	159
0	132	25.900843571933	160
0	134	26.111630970069	161
0	134	26.111630970069	162
0	139	26.405884904774	162
0	139	26.405884904774	163
0	141	26.518681514243	164
0	141	26.518681514243	165
0	142	26.520697414945	166
0	142	26.520697414945	167
0	144	26.583998141105	168
0	144	26.583998141105	169
0	146	26.855963461849	170
0	146	26.855963461849	171
0	147	27.014517195309	172
0	147	27.014517195309	173
0	148	27.173910448949	174
0	148	27.173910448949	175
0	149	27.269323837074	176
0	149	27.269323837074	177
0	151	27.544093161392	178
0	151	27.544093161392	179
0	152	27.618779240396	180
0	152	27.618779240396	181
0	153	27.956809644348	182
0	153	27.956809644348	183
0	156	28.018480247422	184
0	156	28.018480247422	185
0	157	28.05993818799	185
0	157	28.05993818799	186
0	158	28.167606497668	187
0	158	28.167606497668	188
0	159	28.204839645342	189
0	159	28.204839645342	190
0	160	28.473417643973	191
0	160	28.473417643973	192
0	161	28.511605071303	193
0	161	28.511605071303	194
0	163	28.748831148321	195
0	163	28.748831148321	196
0	165	28.820861077671	197
0	165	28.820861077671	198
0	167	29.298281048179	199
0	167	29.298281048179	200
0	169	29.431918497709	201
0	169	29.431918497709	202
0	170	29.432552543392	203
0	170	29.432552543392	204
0	171	29.457901774975	205
0	171	29.457901774975	206
0	172	29.862891931589	207
0	172	29.862891931589	208
0	173	29.921925278314	209
0	173	29.921925278314	210
0	174	29.927369982299	211
0	174	29.927369982299	212
0	175	29.94283599499	213
0	175	29.94283599499	214
0	176	29.944368531946	215
0	176	29.944368531946	216
0	177	30.23405878763	217
0	177	30.23405878763	218
0	178	30.556710127199	219
0	178	30.556710127199	220
0	181	30.800204391579	221
0	181	30.800204391579	222
0	182	30.984905515093	223
0	182	30.984905515093	224
0	184	31.193595162429	225
0	184	31.193595162429	226
0	185	31.420031246775	227
0	185	31.420031246775	228
0	187	31.480236557815	229
0	187	31.480236557815	230
0	189	31.679972898032	231
0	189	31.679972898032	232
0	190	31.740694547556	233
0	190	31.740694547556	234
0	191	31.771645614241	235
0	191	31.771645614241	236
0	192	31.77899170963	237
0	192	31.77899170963	238
0	193	32.250467734713	239
0	193	32.250467734713	240
0	194	32.386580163769	241
0	194	32.386580163769	242
0	197	32.727733667928	243
0	197	32.727733667928	244
0	200	32.801174763817	245
0	200	32.801174763817	246
0	201	32.885612449891	247
0	201	32.885612449891	248
0	202	32.980802109036	249
0	202	32.980802109036	250
0	207	33.328389267017	251
0	207	33.328389267017	252
0	208	33.35186248875	252
0	208	33.35186248875	253
0	211	33.514749183847	254
0	211	33.514749183847	255
0	212	33.52952688911	256
0	212	33.52952688911	257
0	213	33.698812319132	258
0	213	33.698812319132	259
0	214	33.954482336685	260
0	214	33.954482336685	261
0	215	34.22355316237	262
0	215	34.22355316237	263
0	217	34.253335558613	264
0	217	34.253335558613	265
0	219	34.261569706478	266
0	219	34.261569706478	267
0	220	34.376815581278	268
0	220	34.376815581278	269
0	221	34.434135297075	270
0	221	34.434135297075	271
0	223	34.693749632981	272
0	223	34.693749632981	273
0	225	34.905364162101	274
0	225	34.905364162101	275
0	226	35.002504660718	276
0	226	35.002504660718	277
0	227	35.056616562808	278
0	227	35.056616562808	279
0	228	35.111243385522	280
0	228	35.111243385522	281
0	229	35.220490592783	282
0	229	35.220490592783	283
0	230	35.769580039465	284
0	230	35.769580039465	285
0	231	35.771876371049	286
0	231	35.771876371049	287
0	232	35.863090290182	287
0	232	35.863090290182	288
0	235	35.945995364873	289
0	235	35.945995364873	290
0	236	35.988436302914	291
0	236	35.988436302914	292
0	237	36.051560989784	293
0	237	36.051560989784	294
0	238	36.104601404158	295
0	238	36.104601404158	296
0	239	36.150604833782	297
0	239	36.150604833782	298
0	240	36.217592862655	299
0	240	36.217592862655	300
0	242	36.616752768419	301
0	242	36.616752768419	302
0	243	36.631344640224	303
0	243	36.631344640224	304
0	244	36.695246905943	305
0	244	36.695246905943	306
0	248	37.189840404753	307
0	248	37.189840404753	308
0	249	37.298780264382	309
0	249	37.298780264382	310
0	250	37.343351807611	311
0	250	37.343351807611	312
0	252	37.365388313843	313
0	252	37.365388313843	314
0	254	37.395969125402	315
0	254	37.395969125402	316
0	255	37.402055292436	317
0	255	37.402055292436	318
0	257	37.501285715996	319
0	257	37.501285715996	320
0	258	37.560272128309	321
0	258	37.560272128309	322
0	259	37.623446987727	323
0	259	37.623446987727	324
0	260	37.960149605753	325
0	260	37.960149605753	326
0	262	38.171095384813	327
0	262	38.171095384813	328
0	264	38.515538106596	329
0	264	38.515538106596	330
0	265	38.535378331387	331
0	265	38.535378331387	332
0	266	38.646211361678	333
0	266	38.646211361678	334
0	267	38.693532138413	335
0	267	38.693532138413	336
0	268	38.757844140238	336
0	268	38.757844140238	337
0	271	38.828620554692	338
0	271	38.828620554692	339
0	272	38.948496326093	340
0	272	38.948496326093	341
0	273	38.957589928497	342
0	273	38.957589928497	343
0	274	38.973232415732	344
0	274	38.973232415732	345
0	275	39.015549470165	346
0	275	39.015549470165	347
0	276	39.112710979319	348
0	276	39.112710979319	349
0	277	39.241278786248	350
0	277	39.241278786248	351
0	280	39.548444858582	352
0	280	39.548444858582	353
0	282	39.691377762308	354
0	282	39.691377762308	355
0	283	39.927920879487	356
0	283	39.927920879487	357
0	284	40.068594254136	358
0	284	40.068594254136	359
0	286	40.126903146205	360
0	286	40.126903146205	361
0	287	40.127562870499	362
0	287	40.127562870499	363
0	291	40.285564323932	363
0	291	40.285564323932	364
0	292	40.321665889767	365
0	292	40.321665889767	366
0	293	40.322950126416	367
0	293	40.322950126416	368
0	294	40.471501799726	369
0	294	40.471501799726	370
0	295	40.614680112094	371
0	295	40.614680112094	372
0	296	40.638037320289	373
0	296	40.638037320289	374
0	297	40.663851953595	375
0	297	40.663851953595	376
0	298	40.702955771674	377
0	298	40.702955771674	378
0	300	40.9793116141	379
0	300	40.9793116141	380
0	302	40.989891508836	380
0	302	40.989891508836	381
0	306	41.146804333267	382
0	306	41.146804333267	383
0	308	41.213491012158	384
0	308	41.213491012158	385
0	310	41.626850269891	386
0	310	41.626850269891	387
0	311	41.644433259216	388
0	311	41.644433259216	389
0	312	41.68256522254	390
0	312	41.68256522254	391
0	314	41.830911203015	392
0	314	41.830911203015	393
0	315	41.868920037285	394
0	315	41.868920037285	395
0	316	41.890774948334	396
0	316	41.890774948334	397
0	317	42.004606293291	398
0	317	42.004606293291	399
0	318	42.050769868239	400
0	318	42.050769868239	401
0	320	42.120277074619	402
0	320	42.120277074619	403
0	321	42.183952770957	404
0	321	42.183952770957	405
0	324	42.254655429463	406
0	324	42.254655429463	407
0	325	42.287489764876	408
0	325	42.287489764876	409
0	329	42.417329484568	410
0	329	42.417329484568	411
0	330	42.558074397536	412
0	330	42.558074397536	413
0	331	42.712296233561	414
0	331	42.712296233561	415
0	333	42.856363668851	416
0	333	42.856363668851	417
0	335	42.955438177795	418
0	335	42.955438177795	419
0	336	42.991331941371	419
0	336	42.991331941371	420
0	337	43.188366384755	421
0	337	43.188366384755	422
0	339	43.290946396018	423
0	339	43.290946396018	424
0	341	43.449895484762	425
0	341	43.449895484762	426
0	342	43.494667174071	427
0	342	43.494667174071	428
0	343	43.495638521581	429
0	343	43.495638521581	430
0	344	43.652650620721	431
0	344	43.652650620721	432
0	345	43.765128264737	433
0	345	43.765128264737	434
0	346	43.79452196582	435
0	346	43.79452196582	436
0	348	43.962533459754	437
0	348	43.962533459754	438
0	349	44.036130325917	439
0	349	44.036130325917	440
0	350	44.133610764024	441
0	350	44.133610764024	442
0	351	44.144816989375	443
0	351	44.144816989375	444
0	352	44.169821259584	445
0	352	44.169821259584	446
0	353	44.260308725682	447
0	353	44.260308725682	448
0	355	44.447935613333	449
0	355	44.447935613333	450
0	357	44.726384288814	451
0	357	44.726384288814	452
0	358	44.737033555095	453
0	358	44.737033555095	454
0	359	44.771145481858	455
0	359	44.771145481858	456
0	360	44.79820956597	457
0	360	44.79820956597	458
0	361	44.998602292657	459
0	361	44.998602292657	460
0	362	45.188025164932	461
0	362	45.188025164932	462
0	363	45.287983327424	463
0	363	45.287983327424	464
0	364	45.378808348644	465
0	364	45.378808348644	466
0	365	45.392010540867	467
0	365	45.392010540867	468
0	366	45.396653070773	469
0	366	45.396653070773	470
0	368	45.471795222059	471
0	368	45.471795222059	472
0	369	45.490698588069	473
0	369	45.490698588069	474
0	372	45.557487141753	474
0	372	45.557487141753	475
0	373	45.643936860676	476
0	373	45.643936860676	477
0	375	45.814839324046	478
0	375	45.814839324046	479
0	378	45.883125543544	480
0	378	45.883125543544	481
0	379	46.093795542418	482
0	379	46.093795542418	483
0	380	46.10759955551	484
0	380	46.10759955551	485
0	381	46.199766610439	486
0	381	46.199766610439	487
0	382	46.228697452971	488
0	382	46.228697452971	489
0	383	46.239131880382	490
0	383	46.239131880382	491
0	384	46.399745638501	492
0	384	46.399745638501	493
0	386	46.477539025112	493
0	386	46.477539025112	494
0	387	46.55776158504	495
0	387	46.55776158504	496
0	389	46.684910890825	497
0	389	46.684910890825	498
0	390	46.747131001679	499
0	390	46.747131001679	500
0	391	46.83173511476	501
0	391	46.83173511476	502
0	393	46.904728257513	503
0	393	46.904728257513	504
0	394	47.101848161828	505
0	394	47.101848161828	506
0	395	47.111854191865	507
0	395	47.111854191865	508
0	396	47.132648465059	509
0	396	47.132648465059	510
0	397	47.149920272909	511
0	397	47.149920272909	512
0	399	47.174377153383	513
0	399	47.174377153383	514
0	400	47.18704312439	515
0	400	47.18704312439	516
0	402	47.259840116434	517
0	402	47.259840116434	518
0	403	47.306058637361	518
0	403	47.306058637361	519
0	404	47.366318420944	520
0	404	47.366318420944	521
0	406	47.484663044259	522
0	406	47.484663044259	523
0	409	47.832985189899	524
0	409	47.832985189899	525
0	411	47.990240658351	526
0	411	47.990240658351	527
0	412	48.038374350683	528
0	412	48.038374350683	529
0	413	48.145485512625	530
0	413	48.145485512625	531
0	414	48.149101749537	532
0	414	48.149101749537	533
0	416	48.301668634037	534
0	416	48.301668634037	535
0	417	48.323106342247	536
0	417	48.323106342247	537
0	419	48.372444263125	537
0	419	48.372444263125	538
0	420	48.380750603674	539
0	420	48.380750603674	540
0	421	48.381045695848	541
0	421	48.381045695848	542
0	423	48.470488742653	543
0	423	48.470488742653	544
0	424	48.515191598824	545
0	424	48.515191598824	546
0	425	48.51795667619	547
0	425	48.51795667619	548
0	426	48.559576100951	549
0	426	48.559576100951	550
0	427	48.617410956853	551
0	427	48.617410956853	552
0	428	48.637413215636	553
0	428	48.637413215636	554
0	429	48.65369083666	555
0	429	48.65369083666	556
0	430	48.738231840844	557
0	430	48.738231840844	558
0	432	48.824124233628	559
0	432	48.824124233628	560
0	435	49.379071165206	561
0	435	49.379071165206	562
0	436	49.445204280706	563
0	436	49.445204280706	564
0	437	49.464971418889	565
0	437	49.464971418889	566
0	438	49.533956293005	567
0	438	49.533956293005	568
0	439	49.608744604056	569
0	439	49.608744604056	570
0	440	49.640186777367	571
0	440	49.640186777367	572
0	441	49.647499342701	573
0	441	49.647499342701	574
0	442	49.671067620157	575
0	442	49.671067620157	576
0	443	49.774838615365	577
0	443	49.774838615365	578
0	444	49.820051797146	579
0	444	49.820051797146	580
0	445	49.825329002642	581
0	445	49.825329002642	582
0	446	49.851266808871	583
0	446	49.851266808871	584
0	447	49.861159761946	585
0	447	49.861159761946	586
0	448	49.976712120299	587
0	448	49.976712120299	588
0	449	50.056863133767	589
0	449	50.056863133767	590
0	450	50.064866618652	591
0	450	50.064866618652	592
0	451	50.228954938056	593
0	451	50.228954938056	594
0	452	50.35869814133	595
0	452	50.35869814133	596
0	453	50.420134302888	597
0	453	50.420134302888	598
0	454	50.488777295033	599
0	454	50.488777295033	600
0	455	50.540976381725	601
0	455	50.540976381725	602
0	457	50.786366263865	603
0	457	50.786366263865	604
0	458	50.79520093503	605
0	458	50.79520093503	606
0	459	50.831665080293	607
0	459	50.831665080293	608
0	460	50.931796663387	609
0	460	50.931796663387	610
0	463	51.012299269234	611
0	463	51.012299269234	612
0	464	51.044316407217	613
0	464	51.044316407217	614
0	466	51.169229688885	615
0	466	51.169229688885	616
0	470	51.263409761692	616
0	470	51.263409761692	617
0	471	51.316759809141	618
0	471	51.316759809141	619
0	472	51.333990276043	620
0	472	51.333990276043	621
0	473	51.360627693598	622
0	473	51.360627693598	623
0	474	51.669017940105	624
0	474	51.669017940105	625
0	475	51.687014099609	626
0	475	51.687014099609	627
0	476	51.760535306453	628
0	476	51.760535306453	629
0	477	51.773596738067	630
0	477	51.773596738067	631
0	478	51.791050236488	632
0	478	51.791050236488	633
0	479	51.844925099915	634
0	479	51.844925099915	635
0	480	51.851962563553	636
0	480	51.851962563553	637
0	482	51.983728688171	638
0	482	51.983728688171	639
0	483	51.984684450416	640
0	483	51.984684450416	641
0	484	52.141675921192	642
0	484	52.141675921192	643
0	485	52.210681169546	644
0	485	52.210681169546	645
0	488	52.358231981745	646
0	488	52.358231981745	647
0	489	52.370257971732	648
0	489	52.370257971732	649
0	491	52.374463779162	650
0	491	52.374463779162	651
0	492	52.394750917509	652
0	492	52.394750917509	653
0	494	52.433653315093	654
0	494	52.433653315093	655
0	495	52.449693049582	656
0	495	52.449693049582	657
0	496	52.458343143991	658
0	496	52.458343143991	659
0	497	52.728879600361	660
0	497	52.728879600361	661
0	500	52.787560930792	661
0	500	52.787560930792	662
0	501	52.84658611657	663
0	501	52.84658611657	664
0	502	52.90759157242	665
0	502	52.90759157242	666
0	503	53.005362690126	667
0	503	53.005362690126	668
0	504	53.032347775108	669
0	504	53.032347775108	670
0	506	53.068680431422	671
0	506	53.068680431422	672
0	509	53.141655740782	673
0	509	53.141655740782	674
0	516	53.318130482658	675
0	516	53.318130482658	676
0	517	53.321238641042	676
0	517	53.321238641042	677
0	518	53.438729120933	678
0	518	53.438729120933	679
0	519	53.489145430687	680
0	519	53.489145430687	681
0	520	53.498470849987	682
0	520	53.498470849987	683
0	521	53.533264663925	684
0	521	53.533264663925	685
0	522	53.636867192603	686
0	522	53.636867192603	687
0	523	53.699939985361	688
0	523	53.699939985361	689
0	525	53.788927982141	690
0	525	53.788927982141	691
0	526	53.803802135032	692
0	526	53.803802135032	693
0	527	53.842737454025	694
0	527	53.842737454025	695
0	528	53.935172950611	696
0	528	53.935172950611	697
0	529	53.93612021286	698
0	529	53.93612021286	699
0	530	53.938782132642	700
0	530	53.938782132642	701
0	531	53.981059267016	702
0	531	53.981059267016	703
0	532	53.995265974905	704
0	532	53.995265974905	705
0	533	53.99633047103	706
0	533	53.99633047103	707
0	534	54.096587959425	708
0	534	54.096587959425	709
0	535	54.113350971796	710
0	535	54.113350971796	711
0	537	54.281804645655	712
0	537	54.281804645655	713
0	539	54.512670134583	714
0	539	54.512670134583	715
0	540	54.590412292087	716
0	540	54.590412292087	717
0	542	54.619848564432	718
0	542	54.619848564432	719
0	543	54.801554847305	720
0	543	54.801554847305	721
0	544	54.815393344703	722
0	544	54.815393344703	723
0	545	54.903859709037	723
0	545	54.903859709037	724
0	548	54.999415380245	725
0	548	54.999415380245	726
0	549	55.017452555985	727
0	549	55.017452555985	728
0	550	55.092175573892	729
0	550	55.092175573892	730
0	551	55.154907150824	731
0	551	55.154907150824	732
0	552	55.16794778255	733
0	552	55.16794778255	734
0	553	55.171353333446	735
0	553	55.171353333446	736
0	555	55.222986489951	737
0	555	55.222986489951	738
0	556	55.228845670828	739
0	556	55.228845670828	740
0	557	55.238275112798	741
0	557	55.238275112798	742
0	559	55.416109797331	743
0	559	55.416109797331	744
0	560	55.445939846404	745
0	560	55.445939846404	746
0	561	55.455167077011	747
0	561	55.455167077011	748
0	562	55.477469438732	749
0	562	55.477469438732	750
0	563	55.508258270744	751
0	563	55.508258270744	752
0	564	55.544990406003	753
0	564	55.544990406003	754
0	565	55.548184406979	755
0	565	55.548184406979	756
0	566	55.686944614795	757
0	566	55.686944614795	758
0	567	55.840051496363	759
0	567	55.840051496363	760
0	568	56.008828867383	761
0	568	56.008828867383	762
0	569	56.06419926064	763
0	569	56.06419926064	764
0	574	56.168374247139	765
0	574	56.168374247139	766
0	577	56.277635969484	767
0	577	56.277635969484	768
0	578	56.369317668301	769
0	578	56.369317668301	770
0	579	56.447994014229	771
0	579	56.447994014229	772
0	580	56.459953053312	773
0	580	56.459953053312	774
0	582	56.532448578942	775
0	582	56.532448578942	776
0	583	56.576168336216	777
0	583	56.576168336216	778
0	585	56.628528204627	779
0	585	56.628528204627	780
0	586	56.684627834891	781
0	586	56.684627834891	782
0	587	56.749377981289	783
0	587	56.749377981289	784
0	588	56.76685393445	785
0	588	56.76685393445	786
0	589	56.77417926367	787
0	589	56.77417926367	788
0	590	56.857545934434	789
0	590	56.857545934434	790
0	591	56.873476082339	791
0	591	56.873476082339	792
0	592	56.921402363271	793
0	592	56.921402363271	794
0	593	57.021622690551	795
0	593	57.021622690551	796
0	594	57.109073955368	797
0	594	57.109073955368	798
0	595	57.120501057988	799
0	595	57.120501057988	800
0	600	57.287366956491	801
0	600	57.287366956491	802
0	601	57.325891657636	802
0	601	57.325891657636	803
0	602	57.347434217673	804
0	602	57.347434217673	805
0	603	57.442516587742	806
0	603	57.442516587742	807
0	604	57.497120958491	808
0	604	57.497120958491	809
0	607	57.577928591974	810
0	607	57.577928591974	811
0	608	57.606668008686	812
0	608	57.606668008686	813
0	609	57.608561403041	814
0	609	57.608561403041	815
0	612	57.698873511876	815
0	612	57.698873511876	816
0	613	57.710874291583	817
0	613	57.710874291583	818
0	614	57.801650122895	819
0	614	57.801650122895	820
0	615	57.810249832572	821
0	615	57.810249832572	822
0	616	58.032815008433	823
0	616	58.032815008433	824
0	617	58.054105249297	825
0	617	58.054105249297	826
0	618	58.076763638378	827
0	618	58.076763638378	828
0	619	58.088779813308	829
0	619	58.088779813308	830
0	620	58.147693241758	831
0	620	58.147693241758	832
0	621	58.189323623461	833
0	621	58.189323623461	834
0	622	58.299806328253	835
0	622	58.299806328253	836
0	624	58.337366144921	837
0	624	58.337366144921	838
0	625	58.351099642736	839
0	625	58.351099642736	840
0	626	58.358408479897	841
0	626	58.358408479897	842
0	627	58.388596904561	843
0	627	58.388596904561	844
0	628	58.395099208466	844
0	628	58.395099208466	845
0	629	58.425220980725	846
0	629	58.425220980725	847
0	631	58.432661594703	848
0	631	58.432661594703	849
0	632	58.55013473166	850
0	632	58.55013473166	851
0	633	58.653392491385	852
0	633	58.653392491385	853
0	635	58.675284650011	854
0	635	58.675284650011	855
0	638	58.804335043697	856
0	638	58.804335043697	857
0	639	58.829385069394	858
0	639	58.829385069394	859
0	640	58.862598389833	860
0	640	58.862598389833	861
0	641	58.876369902969	861
0	641	58.876369902969	862
0	642	58.88392089064	863
0	642	58.88392089064	864
0	643	58.989407311462	865
0	643	58.989407311462	866
0	647	59.104497155986	867
0	647	59.104497155986	868
0	648	59.118513405246	869
0	648	59.118513405246	870
0	649	59.21108334397	871
0	649	59.21108334397	872
0	650	59.249980214188	873
0	650	59.249980214188	874
0	651	59.34649974752	875
0	651	59.34649974752	876
0	652	59.412607146757	877
0	652	59.412607146757	878
0	653	59.505973891984	879
0	653	59.505973891984	880
0	654	59.694285059228	881
0	654	59.694285059228	882
0	655	59.74620932462	883
0	655	59.74620932462	884
0	656	59.765631414688	885
0	656	59.765631414688	886
0	657	59.802400295201	887
0	657	59.802400295201	888
0	658	59.818687439426	889
0	658	59.818687439426	890
0	660	59.900678902947	891
0	660	59.900678902947	892
0	661	59.9061117262	893
0	661	59.9061117262	894
0	663	59.937275676353	895
0	663	59.937275676353	896
0	664	59.976997436301	897
0	664	59.976997436301	898
0	665	59.981165527545	899
0	665	59.981165527545	900
0	666	59.981951039759	901
0	666	59.981951039759	902
0	668	60.024915219701	903
0	668	60.024915219701	904
0	670	60.071453596727	905
0	670	60.071453596727	906
0	672	60.125123749933	907
0	672	60.125123749933	908
0	673	60.22642608375	909
0	673	60.22642608375	910
0	674	60.302331158854	911
0	674	60.302331158854	912
0	675	60.356522128099	913
0	675	60.356522128099	914
0	676	60.375946919442	915
0	676	60.375946919442	916
0	677	60.442015678758	917
0	677	60.442015678758	918
0	678	60.443582303927	919
0	678	60.443582303927	920
0	679	60.497106807839	921
0	679	60.497106807839	922
0	680	60.502216855751	923
0	680	60.502216855751	924
0	682	60.573680206125	925
0	682	60.573680206125	926
0	683	60.597279995378	927
0	683	60.597279995378	928
0	684	60.63761771241	929
0	684	60.63761771241	930
0	685	60.681656038552	931
0	685	60.681656038552	932
0	686	60.781243591821	933
0	686	60.781243591821	934
0	687	60.960649248262	935
0	687	60.960649248262	936
0	688	60.972463258606	937
0	688	60.972463258606	938
0	689	61.055571380949	939
0	689	61.055571380949	940
0	690	61.083293559258	941
0	690	61.083293559258	942
0	691	61.106644804831	943
0	691	61.106644804831	944
0	692	61.250245966454	945
0	692	61.250245966454	946
0	694	61.403784084464	947
0	694	61.403784084464	948
0	695	61.435025341771	949
0	695	61.435025341771	950
0	697	61.451351942756	951
0	697	61.451351942756	952
0	698	61.488857174272	953
0	698	61.488857174272	954
0	699	61.492034681833	954
0	699	61.492034681833	955
0	700	61.517541433821	956
0	700	61.517541433821	957
0	702	61.55707932268	958
0	702	61.55707932268	959
0	703	61.571714331639	959
0	703	61.571714331639	960
0	704	61.60192772315	961
0	704	61.60192772315	962
0	708	61.645677316551	963
0	708	61.645677316551	964
0	709	61.68080298173	965
0	709	61.68080298173	966
0	710	61.681106307262	967
0	710	61.681106307262	968
0	711	61.699162050496	969
0	711	61.699162050496	970
0	712	61.726304052639	971
0	712	61.726304052639	972
0	713	61.773406885143	973
0	713	61.773406885143	974
0	714	61.8730189714	975
0	714	61.8730189714	976
0	715	61.954850952712	977
0	715	61.954850952712	978
0	716	61.991087733458	979
0	716	61.991087733458	980
0	718	62.076821614686	981
0	718	62.076821614686	982
0	720	62.14291331947	983
0	720	62.14291331947	984
0	721	62.150598818455	985
0	721	62.150598818455	986
0	722	62.267402099804	986
0	722	62.267402099804	987
0	724	62.345413438922	988
0	724	62.345413438922	989
0	725	62.377583286734	990
0	725	62.377583286734	991
0	726	62.391603662861	992
0	726	62.391603662861	993
0	728	62.483827530907	994
0	728	62.483827530907	995
0	729	62.532810313317	996
0	729	62.532810313317	997
0	730	62.597075963189	998
0	730	62.597075963189	999
0	731	62.621601708446	1000
0	731	62.621601708446	1001
0	732	62.626018059024	1002
0	732	62.626018059024	1003
0	733	62.630580047076	1004
0	733	62.630580047076	1005
0	734	62.792218795039	1006
0	734	62.792218795039	1007
0	735	62.843175672123	1008
0	735	62.843175672123	1009
0	736	62.860274834137	1010
0	736	62.860274834137	1011
0	737	62.866575275379	1012
0	737	62.866575275379	1013
0	738	62.906994830322	1014
0	738	62.906994830322	1015
0	739	62.932035053137	1016
0	739	62.932035053137	1017
0	742	63.00176734768	1018
0	742	63.00176734768	1019
0	743	63.009544642095	1019
0	743	63.009544642095	1020
0	746	63.042352243987	1021
0	746	63.042352243987	1022
0	747	63.079216858718	1023
0	747	63.079216858718	1024
0	748	63.102770294071	1025
0	748	63.102770294071	1026
0	749	63.123477629949	1027
0	749	63.123477629949	1028
0	750	63.199942248079	1029
0	750	63.199942248079	1030
0	751	63.219653178539	1031
0	751	63.219653178539	1032
0	753	63.292521461006	1032
0	753	63.292521461006	1033
0	754	63.300754800522	1034
0	754	63.300754800522	1035
0	755	63.332962858501	1036
0	755	63.332962858501	1037
0	756	63.36796852825	1038
0	756	63.36796852825	1039
0	758	63.427363729966	1040
0	758	63.427363729966	1041
0	759	63.496236103864	1042
0	759	63.496236103864	1043
0	762	63.627464784721	1044
0	762	63.627464784721	1045
0	764	63.698701709489	1046
0	764	63.698701709489	1047
0	765	63.699937318375	1048
0	765	63.699937318375	1049
0	767	63.73699976398	1050
0	767	63.73699976398	1051
0	768	63.78289493433	1052
0	768	63.78289493433	1053
0	769	63.825731850512	1054
0	769	63.825731850512	1055
0	770	63.869966238989	1056
0	770	63.869966238989	1057
0	771	63.889498279226	1058
0	771	63.889498279226	1059
0	772	63.896534011359	1060
0	772	63.896534011359	1061
0	773	63.978723507072	1062
0	773	63.978723507072	1063
0	774	64.00872822522	1064
0	774	64.00872822522	1065
0	775	64.009357189523	1066
0	775	64.009357189523	1067
0	776	64.05674059364	1068
0	776	64.05674059364	1069
0	777	64.12649256658	1070
0	777	64.12649256658	1071
0	778	64.218065662205	1072
0	778	64.218065662205	1073
0	779	64.246865946214	1074
0	779	64.246865946214	1075
0	780	64.271967229589	1076
0	780	64.271967229589	1077
0	781	64.419295458439	1078
0	781	64.419295458439	1079
0	782	64.42441422502	1080
0	782	64.42441422502	1081
0	783	64.459196882548	1082
0	783	64.459196882548	1083
0	784	64.565746106635	1084
0	784	64.565746106635	1085
0	785	64.574815912393	1086
0	785	64.574815912393	1087
0	786	64.579310385089	1088
0	786	64.579310385089	1089