version 3
run General-0-20231019-19:32:40-60750
attr configname General
attr datetime 20231019-19:32:40
attr datetimef 20231019-193240
attr experiment General
attr inifile omnetpp.ini
attr iterationvars ""
attr iterationvarsd ""
attr iterationvarsf ""
attr measurement ""
attr network Multihop
attr processid 60750
attr repetition 0
attr replication #0
attr resultdir results
attr runnumber 0
attr seedset 0
config network Multihop
config Multihop.node[*].transmissionTime "uniform(1s, 2s)"
config Multihop.node[*].delayTime "uniform(0.01s, 0.2s)"
config Multihop.node[*].lossProbability 0.3
config record-eventlog true
config sim-time-limit 1000s
config repeat 5

vector 0 Multihop.node[0] txVector ETV
vector 1 Multihop.node[1] rxVector ETV
vector 2 Multihop.node[1] txVector ETV
vector 3 Multihop.node[3] rxVector ETV
vector 4 Multihop.node[3] txVector ETV
vector 5 Multihop.node[4] rxVector ETV
vector 6 Multihop.node[4] txVector ETV
vector 7 Multihop.node[2] rxVector ETV
vector 8 Multihop.node[2] txVector ETV
vector 9 Multihop.node[5] rxVector ETV
vector 10 Multihop.node[5] e2eVector ETV
0	0	0	1
0	1	0.114274565438	2
0	6	1.707119181827	3
0	7	3.598892183584	4
0	8	5.562554947642	5
0	13	6.945996468962	6
0	14	8.594168345519	7
0	20	9.962409882881	8
0	22	11.683042534469	9
0	27	13.2204157627	10
0	28	14.788849711027	11
0	30	15.807639509048	12
0	31	17.419735231511	13
0	36	19.036669230163	14
0	41	21.006478298763	15
0	42	22.576675074715	16
0	45	24.015276588108	17
0	46	25.650335465166	18
0	48	27.645635030772	19
0	50	29.060003618784	20
0	51	30.683513724785	21
0	52	32.021521342294	22
0	54	33.696273664552	23
0	55	35.474619146277	24
0	59	37.424190197679	25
0	62	39.396135196629	26
0	64	41.000980714642	27
0	67	42.040168503605	28
0	68	43.521062039843	29
0	71	45.2097232261	30
0	77	46.90219534545	31
0	80	48.569605721699	32
0	81	49.834335886015	33
0	83	51.232156637663	34
0	85	52.397097098248	35
0	87	53.543538861515	36
0	97	55.247276142312	37
0	102	56.922715219509	38
0	103	58.878798859267	39
0	106	60.522789055787	40
0	111	61.992921244193	41
0	112	63.291203572022	42
0	118	64.861168483578	43
0	120	66.297033402909	44
0	125	68.103227394706	45
0	127	70.007875138967	46
0	129	71.516190589246	47
0	132	73.295241607426	48
0	133	74.702424905103	49
0	139	75.771591895333	50
0	144	77.131569954407	51
0	146	78.302556547177	52
0	150	80.177129509234	53
0	158	81.677155803031	54
0	159	82.899599026496	55
0	163	84.118348394361	56
0	164	85.203643961417	57
0	168	86.260062296017	58
0	169	87.802561072939	59
0	170	89.657174656008	60
0	176	91.401009198351	61
0	177	92.538229619226	62
0	182	93.76744894225	63
0	185	95.640099599798	64
0	194	97.319979054694	65
0	195	98.783554477458	66
0	196	100.061183185856	67
0	200	101.647967531187	68
0	203	103.364827211089	69
0	204	104.569692972656	70
0	207	105.734651844091	71
0	209	107.499977096523	72
0	210	109.403696836046	73
0	214	110.487119270795	74
0	216	111.727948047993	75
0	218	112.744377679265	76
0	225	114.414294221512	77
0	226	115.869463038704	78
0	233	117.748332777599	79
0	237	119.095566289339	80
0	238	120.735038805825	81
0	241	122.103623408896	82
0	243	123.50475575037	83
0	244	125.485455423898	84
0	252	126.891575911387	85
0	254	128.844446582559	86
0	256	130.377912258801	87
0	257	132.260772257184	88
0	258	133.511394976943	89
0	260	135.188806801408	90
0	264	136.620954849131	91
0	265	137.877094432085	92
0	266	139.469029595914	93
0	268	140.945506799805	94
0	274	142.404021353533	95
0	279	144.06406121522	96
0	281	145.336883112162	97
0	286	146.533937389802	98
0	291	148.022347451493	99
0	292	149.558524950946	100
0	296	151.239917462997	101
0	297	152.427048355879	102
0	299	154.331032307425	103
0	301	155.787943729272	104
0	307	157.246547685776	105
0	311	158.882608742293	106
0	316	160.340747567199	107
0	319	161.49837983826	108
0	324	163.127278277723	109
0	328	164.434264330266	110
0	333	166.279622014685	111
0	334	167.606322901396	112
0	335	168.839067033565	113
0	340	170.453531740306	114
0	341	172.033683459813	115
0	342	173.804772511896	116
0	343	175.180999093296	117
0	344	176.672023834035	118
0	347	178.653663514255	119
0	353	180.062717608482	120
0	360	181.304136226725	121
0	364	182.751280065699	122
0	369	184.200363492666	123
0	370	186.192374736842	124
0	371	187.441794779923	125
0	377	188.547700938376	126
0	380	189.926757834226	127
0	381	191.72229258118	128
0	386	193.226226190643	129
0	390	194.860223885931	130
0	391	196.828189456908	131
0	394	198.822590245007	132
0	395	200.494497263877	133
0	397	201.942013132924	134
0	400	203.320339276062	135
0	401	205.288133948648	136
0	403	206.835018845347	137
0	404	208.427249263346	138
0	405	210.324010419965	139
0	409	211.730743761713	140
0	413	212.979157222042	141
0	418	214.729752241008	142
0	419	216.618985566383	143
0	426	218.131437226737	144
0	427	219.675115280857	145
0	430	220.957814927751	146
0	438	222.418034635557	147
0	442	223.517451028412	148
0	446	224.744534999437	149
0	454	226.411819839456	150
0	458	228.238644057258	151
0	465	229.643068994467	152
0	466	230.679102816691	153
0	468	231.853874824082	154
0	472	233.806017523005	155
0	474	235.713893113963	156
0	479	237.375010629257	157
0	480	238.892622731466	158
0	483	240.367290715993	159
0	488	242.039873022659	160
0	490	243.045062642617	161
0	500	244.708928708991	162
0	507	246.36594848505	163
0	511	248.342174146164	164
0	513	249.489859724257	165
0	514	250.731761429531	166
0	515	252.164042912496	167
0	517	253.686039182197	168
0	527	255.644780106449	169
0	528	256.742038105454	170
0	531	258.239815009597	171
0	533	260.224748314896	172
0	535	261.495861708491	173
0	538	262.975615582268	174
0	539	264.832740500408	175
0	543	265.950056067041	176
0	548	267.294774189197	177
0	552	268.920132387734	178
0	559	270.753448197923	179
0	562	272.712590447932	180
0	566	273.713798020107	181
0	567	275.069023224364	182
0	571	276.917363376196	183
0	572	278.454642405107	184
0	573	279.729217455096	185
0	574	280.737907373884	186
0	575	281.762852103289	187
0	576	282.907138201946	188
0	577	284.420897936754	189
0	579	285.643555869654	190
0	583	286.698663149102	191
0	586	288.411590003016	192
0	589	290.1930696036	193
0	594	291.54327686278	194
0	598	292.907821492365	195
0	599	294.403791789271	196
0	601	296.085531734934	197
0	604	297.609911540596	198
0	606	299.195343612533	199
0	607	300.804332228217	200
0	609	302.383343432404	201
0	615	304.069705476824	202
0	616	306.006322586516	203
0	619	307.728506605446	204
0	625	308.976191623674	205
0	629	310.968081952843	206
0	636	312.212971432206	207
0	640	314.187961243165	208
0	642	315.970050618823	209
0	644	317.006611607575	210
0	646	318.884362394062	211
0	648	320.168448525786	212
0	652	321.940714103009	213
0	654	323.165181039905	214
0	660	324.172649356842	215
0	665	325.826731284222	216
0	670	327.039165644281	217
0	672	328.207208162945	218
0	673	329.471540923303	219
0	675	330.819897672933	220
0	679	332.422126848789	221
0	682	334.085444767566	222
0	683	335.56482932328	223
0	684	337.479692414708	224
0	693	338.529041360903	225
0	696	339.886248781185	226
0	698	341.580406628388	227
0	701	343.290862382694	228
0	706	344.418551027148	229
0	708	346.381748322935	230
0	709	347.638664971876	231
0	712	349.512221801166	232
0	715	351.221119355482	233
0	717	352.66799631396	234
0	718	354.02534319421	235
0	720	355.940313958867	236
0	721	357.667860954838	237
0	728	358.957774403343	238
0	731	360.003008891434	239
0	732	361.624178143057	240
0	738	363.122357707775	241
0	740	364.181740892191	242
0	743	366.100287340187	243
0	744	367.825281434298	244
0	746	368.98976984441	245
0	748	370.487126678067	246
0	755	371.873574081414	247
0	756	373.774736255944	248
0	759	375.329381312315	249
0	761	377.293357032423	250
0	763	378.531368306677	251
0	765	379.871124689073	252
0	771	381.455717262883	253
0	772	382.803415251268	254
0	778	384.04605257751	255
0	780	385.364969898318	256
0	781	387.256550385919	257
0	782	388.957478454406	258
0	787	390.398255646997	259
0	793	392.021149676596	260
0	798	393.900323011982	261
0	800	395.367442415398	262
0	803	397.196283321198	263
0	804	399.00154717646	264
0	809	400.725488573382	265
0	811	402.139289591763	266
0	813	403.171345213264	267
0	816	405.020664374413	268
0	817	406.535586580005	269
0	825	408.473998604645	270
0	826	409.698412221926	271
0	827	411.652087922976	272
0	832	413.23440765643	273
0	833	415.232433140813	274
0	838	417.016547489981	275
0	841	418.794823655928	276
0	843	420.027206804673	277
0	845	421.377531993738	278
0	849	422.45028607205	279
0	850	424.371478282683	280
0	851	425.821687448606	281
0	853	427.701544133084	282
0	860	429.237346053891	283
0	861	430.502978607848	284
0	865	431.516487311175	285
0	867	432.827116529759	286
0	869	434.542259781225	287
0	870	436.247207841672	288
0	874	437.665844702929	289
0	877	438.716920181945	290
0	878	439.747128387749	291
0	880	441.657201000325	292
0	881	442.842648972127	293
0	883	444.73856016232	294
0	884	446.136548321064	295
0	887	447.896597518188	296
0	892	449.294516135774	297
0	895	450.687482910998	298
0	900	452.041707732085	299
0	905	453.74597902533	300
0	910	455.574125634342	301
0	911	457.059156171348	302
0	915	458.954669109382	303
0	917	460.011041272501	304
0	922	461.342493193759	305
0	923	462.973325004172	306
0	926	464.971319007757	307
0	928	466.339809971466	308
0	929	468.035756833456	309
0	937	469.448190382752	310
0	939	470.944738510368	311
0	941	472.126214833069	312
0	948	473.366705230507	313
0	953	474.68325543527	314
0	955	476.278839076939	315
0	956	477.312610651203	316
0	960	478.395486820093	317
0	966	479.889077423443	318
0	967	481.626062665437	319
0	971	483.351846376038	320
0	977	485.201229337673	321
0	981	487.003585091862	322
0	982	488.780962957139	323
0	987	489.924491524766	324
0	990	491.268780689523	325
0	992	492.91599866033	326
0	995	493.947573255584	327
0	997	495.574733965401	328
0	1004	496.744553464767	329
0	1008	498.005141719547	330
0	1009	499.776382906199	331
0	1010	501.054711713059	332
0	1012	502.193845002283	333
0	1016	503.818342476454	334
0	1017	505.450061006774	335
0	1018	506.912643744447	336
0	1020	508.558972925716	337
0	1025	509.759923481452	338
0	1029	511.547839231626	339
0	1033	512.666756173666	340
0	1034	513.92613356195	341
0	1039	515.684327273467	342
0	1044	516.930904325401	343
0	1045	518.717092827499	344
0	1047	520.465115625016	345
0	1051	521.76576678718	346
0	1056	522.78712547042	347
0	1063	524.137512490457	348
0	1065	526.13358376159	349
0	1069	528.00069829852	350
0	1071	529.938562674054	351
0	1076	531.036372833026	352
0	1081	532.310050378393	353
0	1083	533.924820263942	354
0	1088	534.939071773856	355
0	1091	536.190271887069	356
0	1092	538.172716769462	357
0	1094	539.573165301771	358
0	1095	540.974044870424	359
0	1098	542.742239531667	360
0	1099	544.245688811715	361
0	1106	545.442062959147	362
0	1111	546.7379549342	363
0	1118	548.46327116627	364
0	1123	550.420141731927	365
0	1124	552.222357513921	366
0	1125	553.96588873754	367
0	1127	555.832180318495	368
0	1129	556.845818065179	369
0	1130	558.762970031544	370
0	1132	559.932905018169	371
0	1139	561.363050633881	372
0	1141	562.919183813108	373
0	1145	564.877250989972	374
0	1149	566.76453414264	375
0	1152	568.251682267365	376
0	1153	569.395861317477	377
0	1159	570.792095799305	378
0	1160	572.665086377485	379
0	1161	574.664940211296	380
0	1162	575.745225045204	381
0	1164	576.888303468542	382
0	1165	578.099605030685	383
0	1166	579.144534817037	384
0	1168	581.004896884623	385
0	1169	582.966738144008	386
0	1175	584.727017251614	387
0	1181	586.67243620225	388
0	1187	588.444068330878	389
0	1190	589.99738357363	390
0	1192	591.913802586335	391
0	1196	593.521347946326	392
0	1197	595.504781926588	393
0	1198	597.406913147379	394
0	1203	598.865636029585	395
0	1205	600.614609052033	396
0	1208	601.984549744359	397
0	1210	603.306022675547	398
0	1211	604.820789783566	399
0	1213	605.961229301362	400
0	1214	607.791705651979	401
0	1219	608.849614930877	402
0	1224	610.332242706164	403
0	1227	612.232610153106	404
0	1228	613.358317449062	405
0	1229	615.331413252351	406
0	1230	616.480911789068	407
0	1235	618.180447703998	408
0	1241	619.978526721548	409
0	1242	621.750457590751	410
0	1243	623.163543718939	411
0	1245	624.873602025981	412
0	1254	626.190862218921	413
0	1259	627.277817562527	414
0	1264	629.184311682896	415
0	1266	630.291118026783	416
0	1271	631.778917294766	417
0	1276	633.626224982857	418
0	1282	634.760653042306	419
0	1283	636.069310838661	420
0	1288	638.026252432099	421
0	1293	639.045944075637	422
0	1296	640.78973837041	423
0	1298	642.688563586284	424
0	1299	644.276721258719	425
0	1303	645.310988298921	426
0	1307	646.684042826831	427
0	1308	648.397760591773	428
0	1310	650.313168235194	429
0	1312	652.23233923975	430
0	1315	653.53760625173	431
0	1317	655.123234384066	432
0	1325	656.180233232748	433
0	1326	657.343496894302	434
0	1327	659.040324228887	435
0	1336	660.26775560931	436
0	1337	661.268122959488	437
0	1340	662.541855586532	438
0	1343	664.495418811755	439
0	1348	665.910544065831	440
0	1350	667.72615503527	441
0	1351	669.131943876462	442
0	1352	671.114352137156	443
0	1353	672.771493242195	444
0	1357	674.528964084646	445
0	1362	675.779261946285	446
0	1375	677.334455827789	447
0	1376	678.375762179333	448
0	1377	679.380509687427	449
0	1379	680.737314771933	450
0	1383	682.292700254431	451
0	1385	683.376907751502	452
0	1386	684.746006694229	453
0	1388	686.51127704799	454
0	1396	687.634772269361	455
0	1400	689.012452885814	456
0	1402	690.416574436778	457
0	1403	691.829055925671	458
0	1404	693.672714274682	459
0	1406	695.195823122587	460
0	1410	696.555697141288	461
0	1412	697.565055715691	462
0	1413	699.490902787845	463
0	1414	700.731526631701	464
0	1415	701.777203716177	465
0	1417	703.626063501534	466
0	1421	705.02294768051	467
0	1424	706.54817099178	468
0	1427	707.628619505165	469
0	1430	708.667688714646	470
0	1433	709.774989741694	471
0	1437	710.952326892482	472
0	1443	712.594902536671	473
0	1445	713.62478367456	474
0	1452	715.24659361488	475
0	1453	716.42479457178	476
0	1456	717.595966619745	477
0	1460	718.979348021399	478
0	1462	720.964016420373	479
0	1464	722.73225967081	480
0	1466	724.611452229393	481
0	1476	726.391275037618	482
0	1477	727.972293619837	483
0	1482	729.743582574723	484
0	1484	731.366550891034	485
0	1490	733.324830224577	486
0	1492	734.665434867682	487
0	1494	736.449493479522	488
0	1495	738.416540276332	489
0	1496	740.291382637181	490
0	1497	741.847045266143	491
0	1505	742.948329510008	492
0	1508	744.135690413256	493
0	1509	745.145467935669	494
0	1513	746.300839119431	495
0	1515	747.997129965647	496
0	1517	749.220847730365	497
0	1523	751.210612596318	498
0	1524	752.327754485493	499
0	1527	753.684010449869	500
0	1528	755.031470118861	501
0	1540	756.485635388016	502
0	1543	757.569165977489	503
0	1545	758.96801349784	504
0	1548	760.071206624692	505
0	1550	762.028695165252	506
0	1552	763.141446674082	507
0	1558	764.859633198546	508
0	1563	766.409051780894	509
0	1565	767.728644373899	510
0	1566	769.502532830301	511
0	1570	771.439049977648	512
0	1571	772.5738819815	513
0	1572	773.954331660016	514
0	1574	775.86474121276	515
0	1575	776.902218890215	516
0	1581	778.675480945806	517
0	1584	779.779382402149	518
0	1590	781.603372495693	519
0	1591	783.332983883635	520
0	1592	784.942077784172	521
0	1593	786.127194179061	522
0	1594	787.133397597659	523
0	1596	788.142682043675	524
0	1602	790.085461457099	525
0	1605	792.083660411953	526
0	1610	793.447944980419	527
0	1615	794.610017959798	528
0	1616	795.807459270885	529
0	1618	797.777590141237	530
0	1621	799.757965216018	531
0	1623	801.699707356352	532
0	1629	802.997677618708	533
0	1631	804.170870852727	534
0	1633	805.19852400811	535
0	1635	806.61296288001	536
0	1636	808.334160997603	537
0	1637	809.814268807718	538
0	1638	811.458132848912	539
0	1645	812.959905975801	540
0	1649	814.220158516499	541
0	1650	815.707102692756	542
0	1651	817.238961783773	543
0	1655	819.201372058666	544
0	1656	820.352087202319	545
0	1660	821.514339010767	546
0	1661	822.609795632144	547
0	1665	824.239697500668	548
0	1666	825.883341516671	549
0	1671	827.305223646877	550
0	1678	828.90716734326	551
0	1680	830.628890214092	552
0	1682	832.125634632143	553
0	1684	834.11299601437	554
0	1685	835.883462409092	555
0	1693	837.019665673677	556
0	1700	838.311262351763	557
0	1701	839.797868444654	558
0	1704	841.490423070337	559
0	1710	843.359151647496	560
0	1712	844.974683546065	561
0	1717	846.196002664114	562
0	1721	847.669388386956	563
0	1726	849.215017311344	564
0	1727	850.569571791286	565
0	1728	852.237375241774	566
0	1729	853.746147808689	567
0	1730	855.265279725497	568
0	1734	856.913445593627	569
0	1739	857.994443779882	570
0	1744	859.403465284804	571
0	1749	860.910235029483	572
0	1750	862.086338871462	573
0	1753	863.406146202307	574
0	1757	864.895967576025	575
0	1763	866.218740913622	576
0	1769	868.132173520351	577
0	1774	869.679357609783	578
0	1776	870.759824795487	579
0	1782	872.11583205599	580
0	1785	874.031484891964	581
0	1788	875.061274433579	582
0	1794	876.175862600632	583
0	1795	877.681770583453	584
0	1798	879.147792329384	585
0	1799	880.914290205413	586
0	1807	882.489694208676	587
0	1812	884.17347713404	588
0	1818	885.440453032103	589
0	1819	886.481799405838	590
0	1823	888.0119987692	591
0	1824	889.341959657684	592
0	1827	891.239873204451	593
0	1828	893.202369374759	594
0	1829	894.999320968357	595
0	1833	896.352813685383	596
0	1834	898.314933454688	597
0	1839	899.607956290781	598
0	1843	901.353622872918	599
0	1844	902.554628360388	600
0	1850	904.398218718427	601
0	1853	906.171673390851	602
0	1854	907.887731103296	603
0	1858	909.064149868744	604
0	1867	910.847689062426	605
0	1874	912.749251884477	606
0	1879	914.688767478637	607
0	1880	916.111174978384	608
0	1886	917.235971425728	609
0	1887	918.800568539484	610
0	1888	919.891537879428	611
0	1894	921.872517281279	612
0	1898	923.862970591357	613
0	1903	925.364562064942	614
0	1908	926.600375479154	615
0	1913	927.684813803827	616
0	1914	928.823120554277	617
0	1916	930.448498732244	618
0	1917	932.378896166171	619
0	1918	933.504050103315	620
0	1920	935.241110547512	621
0	1923	936.698440654735	622
0	1926	938.673227916072	623
0	1928	940.435808291026	624
0	1932	942.165193757574	625
0	1934	943.922687401363	626
0	1936	945.412284029016	627
0	1941	946.642017621148	628
0	1942	948.1587563351	629
0	1943	949.935949066721	630
0	1946	951.0591287113	631
0	1947	952.703231256988	632
0	1952	953.983154642696	633
0	1956	955.798772229415	634
0	1961	956.987171748255	635
0	1964	958.714960497639	636
0	1965	959.738197122536	637
0	1967	961.269300895346	638
0	1969	962.322963802213	639
0	1971	964.09556794383	640
0	1973	965.125856353039	641
0	1974	966.170365983689	642
0	1975	967.418204635683	643
0	1978	968.611085339751	644
0	1984	969.892521983314	645
0	1990	971.661214066971	646
0	1992	973.511989716044	647
0	1994	975.395415174611	648
0	1999	977.376120014418	649
0	2005	978.935690546477	650
0	2006	980.36226195034	651
0	2008	982.238523891032	652
0	2012	983.317326245666	653
0	2013	985.269436039798	654
0	2015	987.147054413402	655
0	2021	988.164084250409	656
0	2022	989.188698783586	657
0	2023	990.808470872766	658
0	2025	992.079687401955	659
0	2026	993.482595847058	660
0	2027	995.041118949954	661
0	2031	996.058159666205	662
0	2032	997.611610098345	663
0	2038	999.353619398618	664
1	2	0.294685056815	1
1	9	5.732982703993	2
1	15	8.79602782484	3
1	23	11.847179502352	4
1	32	17.619047365815	5
1	37	19.180765836281	6
1	43	22.784466102766	7
1	56	35.620499251207	8
1	60	37.611046956704	9
1	65	41.074714036941	10
1	69	43.708352459542	11
1	72	45.337377501307	12
1	78	46.947236939231	13
1	88	53.618349383679	14
1	98	55.314737434571	15
1	104	58.979331317617	16
1	107	60.678843217157	17
1	113	63.423469396984	18
1	121	66.450772234165	19
1	130	71.700527914887	20
1	134	74.85493637187	21
1	140	75.930290102061	22
1	147	78.501939299865	23
1	151	80.206699820395	24
1	160	83.027817997549	25
1	165	85.316333125556	26
1	171	89.76810795803	27
1	178	92.725730845994	28
1	183	93.839421928572	29
1	186	95.746764256546	30
1	197	100.245315750101	31
1	201	101.743218874905	32
1	205	104.613411254226	33
1	211	109.528613405623	34
1	219	112.913556732218	35
1	227	115.982994004275	36
1	234	117.796479541003	37
1	239	120.781049857901	38
1	245	125.613605467646	39
1	261	135.351712359828	40
1	269	141.065179396825	41
1	275	142.463274328615	42
1	282	145.44425572912	43
1	287	146.632705210622	44
1	293	149.631268208884	45
1	302	155.945535580137	46
1	308	157.312151537783	47
1	312	159.014895733283	48
1	317	160.549309176265	49
1	320	161.594082347425	50
1	325	163.170034833902	51
1	329	164.55615649238	52
1	336	168.865351205471	53
1	345	176.73850760172	54
1	348	178.704624854735	55
1	354	180.208593476888	56
1	361	181.508227803538	57
1	365	182.94936409484	58
1	372	187.642475775514	59
1	378	188.638817213146	60
1	382	191.798578634672	61
1	387	193.411011177697	62
1	392	196.934035576408	63
1	398	201.981019222853	64
1	406	210.448905291288	65
1	410	211.846858374743	66
1	414	213.062523640916	67
1	420	216.736005057919	68
1	428	219.700859980262	69
1	431	220.982475133802	70
1	439	222.493092052059	71
1	443	223.623874404866	72
1	447	224.848261557156	73
1	455	226.534252303442	74
1	459	228.362127054638	75
1	469	231.93088031803	76
1	475	235.817543226425	77
1	481	238.947651624953	78
1	484	240.487789302344	79
1	491	243.120760079413	80
1	501	244.85286741037	81
1	508	246.555009279437	82
1	518	253.728330073983	83
1	529	256.872443671771	84
1	536	261.612455881899	85
1	540	264.904278395008	86
1	544	266.105671772358	87
1	549	267.488432520124	88
1	553	269.087534999002	89
1	560	270.793074847397	90
1	563	272.910662025232	91
1	568	275.235451378286	92
1	580	285.836683330036	93
1	584	286.799782397569	94
1	587	288.574284116191	95
1	590	290.2312373814	96
1	595	291.658478864754	97
1	602	296.12783399124	98
1	610	302.588935775303	99
1	617	306.032573840616	100
1	620	307.808970971995	101
1	626	309.067772464412	102
1	630	311.029208832434	103
1	637	312.290127977879	104
1	649	320.304535962299	105
1	655	323.361387524959	106
1	661	324.263526914104	107
1	666	325.881507610046	108
1	676	330.975629062765	109
1	680	332.604474253799	110
1	685	337.5553412421	111
1	694	338.733894592335	112
1	699	341.634037725823	113
1	702	343.428942258385	114
1	710	347.752124495974	115
1	713	349.643823110423	116
1	722	357.797625744926	117
1	729	359.039580796427	118
1	733	361.808867965044	119
1	741	364.224563725697	120
1	749	370.645721819782	121
1	757	373.951839960372	122
1	766	380.034888895218	123
1	773	382.96231764169	124
1	783	389.016864690045	125
1	788	390.439439898073	126
1	794	392.180764294276	127
1	801	395.537630250442	128
1	805	399.127790194931	129
1	814	403.323495066093	130
1	818	406.599029424479	131
1	828	411.692507710685	132
1	834	415.296395679146	133
1	839	417.197733090469	134
1	846	421.519983022585	135
1	854	427.807562927447	136
1	862	430.614891652175	137
1	871	436.268216751168	138
1	875	437.869292864018	139
1	885	446.263508335099	140
1	888	448.063752700282	141
1	893	449.490235700957	142
1	896	450.730335606538	143
1	901	452.2432623365	144
1	906	453.953149674061	145
1	912	457.118806003492	146
1	918	460.070193343721	147
1	924	463.181023946285	148
1	930	468.086977503526	149
1	942	472.188115209877	150
1	949	473.543798231594	151
1	957	477.478118822455	152
1	961	478.4444206101	153
1	968	481.699105295892	154
1	972	483.533103466395	155
1	978	485.221240845966	156
1	983	488.858211652541	157
1	988	490.048772884912	158
1	993	493.1071901635	159
1	998	495.622925962642	160
1	1005	496.849397344198	161
1	1013	502.220605544622	162
1	1021	508.643162690976	163
1	1026	509.88542936217	164
1	1030	511.647171679635	165
1	1035	514.033509850647	166
1	1040	515.764181472864	167
1	1048	520.63726735903	168
1	1052	521.80520698224	169
1	1057	522.896424273516	170
1	1066	526.209494332232	171
1	1072	530.126591142318	172
1	1077	531.098329446281	173
1	1084	534.009820000017	174
1	1089	535.020641714497	175
1	1096	541.09431066886	176
1	1100	544.270833674827	177
1	1107	545.519688424365	178
1	1112	546.77651026797	179
1	1119	548.536089254962	180
1	1133	560.034843149292	181
1	1142	563.122673326077	182
1	1146	565.042614280941	183
1	1150	566.972704161025	184
1	1154	569.444166542176	185
1	1170	583.063578384137	186
1	1176	584.834005935856	187
1	1182	586.75700637894	188
1	1188	588.573633108677	189
1	1193	592.033853551794	190
1	1199	597.582229267367	191
1	1206	600.745690612974	192
1	1215	607.867069527367	193
1	1220	609.055355703791	194
1	1225	610.539064931215	195
1	1231	616.566559487232	196
1	1236	618.305136557261	197
1	1246	625.079663370619	198
1	1255	626.387728855176	199
1	1260	627.449791995198	200
1	1267	630.457685114718	201
1	1272	631.87766403622	202
1	1277	633.685055995206	203
1	1284	636.215851833918	204
1	1289	638.05401865475	205
1	1294	639.139908619317	206
1	1300	644.486441307977	207
1	1304	645.368390189753	208
1	1313	652.431521069071	209
1	1318	655.28025054112	210
1	1328	659.22125752475	211
1	1338	661.375921489926	212
1	1341	662.577870335754	213
1	1344	664.614215959304	214
1	1354	672.79561033944	215
1	1358	674.710501168213	216
1	1363	675.878479396615	217
1	1380	680.93286236099	218
1	1389	686.551615141137	219
1	1397	687.833038584961	220
1	1407	695.249225696235	221
1	1418	703.732171165302	222
1	1422	705.050550924521	223
1	1425	706.682404265444	224
1	1428	707.699868431851	225
1	1431	708.689410114128	226
1	1434	709.801206429687	227
1	1438	711.040987429254	228
1	1446	713.693830407725	229
1	1454	716.526844675556	230
1	1457	717.778508534523	231
1	1467	724.755349663121	232
1	1478	728.097087836577	233
1	1485	731.543161519678	234
1	1498	741.958910390424	235
1	1506	743.100897905279	236
1	1510	745.237128520788	237
1	1518	749.36323217837	238
1	1525	752.363409792012	239
1	1529	755.215860296269	240
1	1541	756.683688761187	241
1	1546	759.046885474296	242
1	1553	763.313818548948	243
1	1559	765.013515502084	244
1	1567	769.571327308034	245
1	1576	777.00806684731	246
1	1582	778.839394078536	247
1	1585	779.802227891685	248
1	1597	788.285098781972	249
1	1603	790.162028816293	250
1	1606	792.264863729644	251
1	1611	793.65100427977	252
1	1619	797.817005140999	253
1	1624	801.854461772193	254
1	1639	811.632321359019	255
1	1646	813.050437279868	256
1	1652	817.387393160667	257
1	1657	820.393876589953	258
1	1662	822.777071892715	259
1	1667	825.993990417714	260
1	1672	827.337263757471	261
1	1686	835.992372357306	262
1	1694	837.192263048365	263
1	1702	839.973609507899	264
1	1705	841.606601387069	265
1	1713	845.02978386709	266
1	1718	846.374496152727	267
1	1722	847.874585802271	268
1	1731	855.337688860384	269
1	1735	857.067139159328	270
1	1740	858.077571073022	271
1	1745	859.580496094458	272
1	1751	862.261535648599	273
1	1754	863.476320023568	274
1	1758	864.92033116177	275
1	1764	866.424648246317	276
1	1770	868.292551466654	277
1	1777	870.967437442615	278
1	1783	872.13948614749	279
1	1786	874.125206052417	280
1	1789	875.183916765908	281
1	1796	877.870942510063	282
1	1800	881.044621172606	283
1	1808	882.552020718251	284
1	1813	884.34385334249	285
1	1820	886.682567460622	286
1	1825	889.455398623493	287
1	1830	895.181002022014	288
1	1835	898.462175472337	289
1	1840	899.748832304294	290
1	1845	902.706929859454	291
1	1851	904.495410492685	292
1	1855	908.082287912003	293
1	1859	909.268583323676	294
1	1868	910.877646399014	295
1	1875	912.846232485155	296
1	1881	916.241422130343	297
1	1889	919.95824924686	298
1	1895	922.053138253472	299
1	1899	924.050059908127	300
1	1904	925.404142182774	301
1	1909	926.651817292372	302
1	1921	935.40416503955	303
1	1924	936.803914344989	304
1	1929	940.616925381902	305
1	1937	945.521831444338	306
1	1944	950.044202233152	307
1	1948	952.78191588985	308
1	1953	954.145719847919	309
1	1957	955.901582060102	310
1	1962	957.099404994345	311
1	1976	967.479089325805	312
1	1979	968.706787364424	313
1	1985	969.957849527873	314
1	1995	975.478576787276	315
1	2000	977.50720248741	316
1	2009	982.400768476754	317
1	2016	987.238869943131	318
1	2028	995.167337843992	319
1	2033	997.802067813406	320
1	2039	999.46323557177	321
2	2	0.294685056815	1
2	9	5.732982703993	2
2	15	8.79602782484	3
2	23	11.847179502352	4
2	32	17.619047365815	5
2	37	19.180765836281	6
2	43	22.784466102766	7
2	56	35.620499251207	8
2	60	37.611046956704	9
2	65	41.074714036941	10
2	69	43.708352459542	11
2	72	45.337377501307	12
2	78	46.947236939231	13
2	88	53.618349383679	14
2	98	55.314737434571	15
2	104	58.979331317617	16
2	107	60.678843217157	17
2	113	63.423469396984	18
2	121	66.450772234165	19
2	130	71.700527914887	20
2	134	74.85493637187	21
2	140	75.930290102061	22
2	147	78.501939299865	23
2	151	80.206699820395	24
2	160	83.027817997549	25
2	165	85.316333125556	26
2	171	89.76810795803	27
2	178	92.725730845994	28
2	183	93.839421928572	29
2	186	95.746764256546	30
2	197	100.245315750101	31
2	201	101.743218874905	32
2	205	104.613411254226	33
2	211	109.528613405623	34
2	219	112.913556732218	35
2	227	115.982994004275	36
2	234	117.796479541003	37
2	239	120.781049857901	38
2	245	125.613605467646	39
2	261	135.351712359828	40
2	269	141.065179396825	41
2	275	142.463274328615	42
2	282	145.44425572912	43
2	287	146.632705210622	44
2	293	149.631268208884	45
2	302	155.945535580137	46
2	308	157.312151537783	47
2	312	159.014895733283	48
2	317	160.549309176265	49
2	320	161.594082347425	50
2	325	163.170034833902	51
2	329	164.55615649238	52
2	336	168.865351205471	53
2	345	176.73850760172	54
2	348	178.704624854735	55
2	354	180.208593476888	56
2	361	181.508227803538	57
2	365	182.94936409484	58
2	372	187.642475775514	59
2	378	188.638817213146	60
2	382	191.798578634672	61
2	387	193.411011177697	62
2	392	196.934035576408	63
2	398	201.981019222853	64
2	406	210.448905291288	65
2	410	211.846858374743	66
2	414	213.062523640916	67
2	420	216.736005057919	68
2	428	219.700859980262	69
2	431	220.982475133802	70
2	439	222.493092052059	71
2	443	223.623874404866	72
2	447	224.848261557156	73
2	455	226.534252303442	74
2	459	228.362127054638	75
2	469	231.93088031803	76
2	475	235.817543226425	77
2	481	238.947651624953	78
2	484	240.487789302344	79
2	491	243.120760079413	80
2	501	244.85286741037	81
2	508	246.555009279437	82
2	518	253.728330073983	83
2	529	256.872443671771	84
2	536	261.612455881899	85
2	540	264.904278395008	86
2	544	266.105671772358	87
2	549	267.488432520124	88
2	553	269.087534999002	89
2	560	270.793074847397	90
2	563	272.910662025232	91