version 3
run General-4-20231019-19:32:40-60750
attr configname General
attr datetime 20231019-19:32:40
attr datetimef 20231019-193240
attr experiment General
attr inifile omnetpp.ini
attr iterationvars ""
attr iterationvarsd ""
attr iterationvarsf ""
attr measurement ""
attr network Multihop
attr processid 60750
attr repetition 4
attr replication #4
attr resultdir results
attr runnumber 4
attr seedset 4
config network Multihop
config Multihop.node[*].transmissionTime "uniform(1s, 2s)"
config Multihop.node[*].delayTime "uniform(0.01s, 0.2s)"
config Multihop.node[*].lossProbability 0.3
config record-eventlog true
config sim-time-limit 1000s
config repeat 5

vector 0 Multihop.node[0] txVector ETV
vector 1 Multihop.node[1] rxVector ETV
vector 2 Multihop.node[1] txVector ETV
vector 3 Multihop.node[2] rxVector ETV
vector 4 Multihop.node[2] txVector ETV
vector 5 Multihop.node[3] rxVector ETV
vector 6 Multihop.node[3] txVector ETV
vector 7 Multihop.node[4] rxVector ETV
vector 8 Multihop.node[4] txVector ETV
vector 9 Multihop.node[5] rxVector ETV
vector 10 Multihop.node[5] e2eVector ETV
0	0	0	1
0	1	0.193735669288	2
0	5	2.094357123985	3
0	7	3.235821296847	4
0	8	4.934241536227	5
0	14	6.837420062548	6
0	16	8.449945405744	7
0	19	10.093859668974	8
0	22	11.880165653223	9
0	24	12.945875191981	10
0	29	14.811757947005	11
0	30	15.969981354581	12
0	31	17.515184008436	13
0	32	19.039588092513	14
0	34	20.677198341269	15
0	39	22.327003454477	16
0	41	23.794753807517	17
0	46	24.87792290227	18
0	47	26.375717023075	19
0	53	27.558162424168	20
0	57	29.130301195117	21
0	58	30.727567802104	22
0	59	31.973021512539	23
0	60	33.705614964631	24
0	62	35.60026625792	25
0	63	37.203829768034	26
0	65	38.268897575945	27
0	70	39.398084358232	28
0	76	41.231232909406	29
0	77	42.467384575554	30
0	80	43.948844518899	31
0	86	45.137870272775	32
0	87	47.040292131635	33
0	88	49.019908394818	34
0	93	50.643477233513	35
0	95	52.105806595799	36
0	99	53.414601160367	37
0	102	54.504742882834	38
0	103	56.257563082888	39
0	104	58.238773007565	40
0	105	60.212051005023	41
0	108	61.252142126592	42
0	112	63.156518748416	43
0	123	64.291264394451	44
0	133	65.364916770406	45
0	138	66.687491750497	46
0	144	68.377277044499	47
0	145	70.261319431396	48
0	147	71.281261791162	49
0	149	72.375342433726	50
0	152	73.570290121402	51
0	159	75.194443364081	52
0	163	76.575277628995	53
0	164	77.61920013713	54
0	168	78.90444473076	55
0	170	80.155943196885	56
0	172	81.74357760317	57
0	175	82.768979304622	58
0	176	84.723198398401	59
0	177	85.780404318741	60
0	178	87.329209441238	61
0	180	88.929006930825	62
0	181	90.854192060104	63
0	183	92.365098182962	64
0	185	94.341003465851	65
0	189	96.294959440048	66
0	192	97.731982913952	67
0	193	99.567857451424	68
0	194	101.096929834144	69
0	195	102.509970877472	70
0	196	103.57253778322	71
0	198	104.76856217665	72
0	202	106.118293274346	73
0	203	107.409133127577	74
0	204	109.154960691615	75
0	206	111.106629283785	76
0	213	112.426993936452	77
0	215	113.464739117923	78
0	218	115.074845514645	79
0	219	116.805060845952	80
0	222	118.401564122796	81
0	224	119.600619774232	82
0	228	121.26807430332	83
0	229	122.632051624511	84
0	234	124.209415320693	85
0	241	125.242474788255	86
0	245	126.561899979287	87
0	248	127.713389228252	88
0	251	129.372424755399	89
0	253	131.32048256245	90
0	256	132.593578742505	91
0	259	134.133026935547	92
0	266	135.84022677938	93
0	272	136.997320246804	94
0	278	138.865564824702	95
0	282	140.153982542144	96
0	289	141.211563881175	97
0	290	142.662371615335	98
0	292	143.736354059461	99
0	293	145.342498278632	100
0	302	147.325010148264	101
0	309	148.631955362079	102
0	314	150.012595250425	103
0	315	151.6810328324	104
0	316	153.533846378946	105
0	323	155.365797774554	106
0	328	157.167511864253	107
0	331	158.286656760531	108
0	337	159.394540983638	109
0	339	160.727332587507	110
0	342	162.408021622491	111
0	345	164.215759575753	112
0	348	165.487552990592	113
0	349	166.744388412605	114
0	351	168.605711745019	115
0	353	169.790978024867	116
0	361	170.887828447311	117
0	364	171.99274991468	118
0	368	173.187148823323	119
0	374	174.363162305592	120
0	378	175.394119209297	121
0	379	176.723881342834	122
0	380	178.214553254809	123
0	388	180.198518965546	124
0	390	181.911936396187	125
0	391	183.870055188112	126
0	396	185.755513091492	127
0	397	186.869592889365	128
0	402	188.799512172504	129
0	409	190.157730220272	130
0	412	191.684158366327	131
0	417	193.468445853717	132
0	418	195.375007686359	133
0	420	196.756412672498	134
0	421	198.449245017641	135
0	423	200.221560359853	136
0	428	201.2865590308	137
0	435	202.293948127576	138
0	439	203.996379265948	139
0	440	205.984565686355	140
0	443	207.200907060564	141
0	454	208.348892640476	142
0	456	209.395958234244	143
0	457	210.616887094141	144
0	458	212.607554910858	145
0	466	214.527205125815	146
0	471	215.673516731863	147
0	472	216.996893011187	148
0	473	218.026793258884	149
0	474	219.122838404882	150
0	477	220.569172026045	151
0	478	222.178435576768	152
0	482	223.29969611174	153
0	485	225.272742629438	154
0	487	226.754503057492	155
0	490	228.349774244628	156
0	493	229.647787344796	157
0	498	231.445635779682	158
0	499	233.145270161019	159
0	501	234.325200268221	160
0	502	236.00627353244	161
0	507	237.083704677797	162
0	508	238.625556133841	163
0	509	239.756228457591	164
0	512	241.560695455097	165
0	515	242.914737171414	166
0	516	244.068894785982	167
0	518	245.9640383999	168
0	519	247.500518630645	169
0	520	249.148611500314	170
0	521	250.173677787105	171
0	523	251.400540067502	172
0	524	253.014394405451	173
0	527	254.146761265969	174
0	532	255.685782345863	175
0	533	257.443405084232	176
0	541	258.503592128087	177
0	544	259.728827418214	178
0	553	261.336411243458	179
0	555	262.436255621877	180
0	557	264.057495111054	181
0	558	265.916337302573	182
0	562	267.469031833265	183
0	568	268.595536812594	184
0	569	269.613385273296	185
0	570	271.045011741262	186
0	574	272.888412086679	187
0	575	274.811445823558	188
0	579	276.736998641784	189
0	585	278.419180184058	190
0	589	280.222870839448	191
0	592	282.130644991915	192
0	594	283.66385575702	193
0	598	285.230048933686	194
0	599	286.894318993124	195
0	604	288.258948346521	196
0	607	290.035034725364	197
0	609	291.107404625198	198
0	613	293.00169554019	199
0	616	294.004741519146	200
0	622	295.747803771558	201
0	623	297.541613732154	202
0	628	299.457943573749	203
0	631	300.874070823348	204
0	632	302.535964628837	205
0	633	304.518004151449	206
0	635	306.196908451306	207
0	637	307.588059526557	208
0	641	308.793829252632	209
0	642	310.532990064626	210
0	644	312.36018493461	211
0	649	313.530208971971	212
0	651	315.201205404862	213
0	654	316.468265865152	214
0	655	317.952196811014	215
0	656	319.75616515094	216
0	657	320.92106556349	217
0	660	322.490111155357	218
0	663	323.90106765173	219
0	666	325.01416370195	220
0	668	326.736893264499	221
0	669	328.143986474645	222
0	670	329.500975059733	223
0	675	331.28162212662	224
0	677	332.632458030401	225
0	679	334.464706167035	226
0	680	336.118083779156	227
0	683	338.016040850352	228
0	688	339.241244000071	229
0	693	341.207838671902	230
0	694	343.152878067145	231
0	695	344.901053446965	232
0	698	346.463980903538	233
0	703	347.490764240423	234
0	704	348.807608476529	235
0	707	350.262633093787	236
0	708	351.742435064321	237
0	711	353.47564112946	238
0	713	354.998139499375	239
0	719	356.981955362871	240
0	724	358.630829617535	241
0	726	359.906547043626	242
0	731	361.663415809315	243
0	735	362.896871538055	244
0	736	364.694450439573	245
0	741	366.209092224636	246
0	744	367.840176752689	247
0	749	369.673389328331	248
0	751	371.288713684924	249
0	756	373.255082802767	250
0	758	375.180431130495	251
0	761	376.898637890503	252
0	766	378.417133241346	253
0	767	380.278004634114	254
0	768	381.572264562281	255
0	772	383.390346759152	256
0	773	384.981013133809	257
0	776	386.775453349728	258
0	778	388.386285759428	259
0	779	390.22009027229	260
0	782	391.860881661916	261
0	784	393.115514121637	262
0	785	394.603133734701	263
0	791	395.639483146755	264
0	793	396.671708012152	265
0	798	398.017206238037	266
0	800	399.080219095493	267
0	805	400.256855959924	268
0	809	401.540674826283	269
0	815	402.657961975005	270
0	817	404.147669641454	271
0	818	406.016867997045	272
0	823	407.232012544679	273
0	824	408.810776309031	274
0	829	410.626114959517	275
0	832	412.013531541373	276
0	834	413.173689133176	277
0	835	414.919916398744	278
0	837	416.261676466945	279
0	839	417.541207464799	280
0	844	418.5490289034	281
0	845	419.68936607583	282
0	846	420.944733118792	283
0	854	422.504846103177	284
0	858	424.236068974169	285
0	862	425.785435845297	286
0	863	427.332449284069	287
0	865	428.39393028539	288
0	868	429.864214203473	289
0	869	431.75472818144	290
0	870	433.668846258813	291
0	872	434.705750944711	292
0	873	436.646509203281	293
0	875	438.43610323748	294
0	877	440.31216224112	295
0	878	441.403817053571	296
0	881	442.49163974441	297
0	883	443.506268817851	298
0	884	445.062067460188	299
0	892	446.739160367673	300
0	893	447.928974417656	301
0	895	449.492326204351	302
0	897	451.461700438673	303
0	898	453.272228157532	304
0	904	454.903369030834	305
0	905	456.561754320201	306
0	910	458.4123970274	307
0	911	460.02878494343	308
0	914	461.669998739764	309
0	918	463.632048912497	310
0	922	465.41200300228	311
0	923	467.081296063412	312
0	924	468.852247581735	313
0	925	470.546131579589	314
0	927	472.516395704739	315
0	932	474.452536852716	316
0	938	476.030253032607	317
0	939	477.31198738158	318
0	940	479.10842826349	319
0	945	480.648760678166	320
0	956	482.122816897848	321
0	961	483.486643834192	322
0	966	485.247744864238	323
0	967	487.090676894797	324
0	969	489.003549980385	325
0	970	490.216546412011	326
0	972	492.051124629251	327
0	973	493.116826336052	328
0	975	494.176607607783	329
0	977	496.168816154742	330
0	978	497.914322733333	331
0	980	499.861083820847	332
0	986	501.291471465177	333
0	987	502.331406353193	334
0	988	503.934889763512	335
0	993	505.052091577707	336
0	995	506.617084463045	337
0	997	508.381231718149	338
0	1000	510.36499289578	339
0	1007	512.332006965682	340
0	1009	514.135232584935	341
0	1010	515.560655116255	342
0	1011	516.561094120063	343
0	1013	518.203073801624	344
0	1014	519.695360229036	345
0	1016	520.849574179307	346
0	1022	522.045171036071	347
0	1023	523.921532601735	348
0	1027	525.742288366577	349
0	1028	527.735150158557	350
0	1029	528.834239964059	351
0	1034	530.362111854984	352
0	1035	532.303942200879	353
0	1038	533.848218463745	354
0	1045	535.695968825754	355
0	1046	537.301564935979	356
0	1049	538.531262246112	357
0	1052	539.923024534865	358
0	1055	540.995964831126	359
0	1059	542.474203911296	360
0	1060	543.585293665447	361
0	1061	545.130336547888	362
0	1062	546.506195682253	363
0	1063	547.960983435543	364
0	1072	549.61058040677	365
0	1073	551.194375588944	366
0	1078	552.820481292357	367
0	1082	554.423616084888	368
0	1084	555.936040366221	369
0	1088	557.438942845365	370
0	1089	559.298876481749	371
0	1095	560.721305509018	372
0	1099	561.880503792934	373
0	1100	563.212589370938	374
0	1105	564.605221941289	375
0	1107	565.746640610662	376
0	1110	566.772797982362	377
0	1113	568.113739503701	378
0	1117	569.341598241976	379
0	1118	570.850404806123	380
0	1122	572.534506293167	381
0	1123	573.77639942259	382
0	1127	575.674045516564	383
0	1129	576.678316524405	384
0	1133	577.870285004297	385
0	1134	579.695608235815	386
0	1135	581.298746555497	387
0	1142	582.774031234126	388
0	1147	583.988481575077	389
0	1148	585.552271693864	390
0	1149	587.077501266182	391
0	1155	588.252996298403	392
0	1168	589.640826247318	393
0	1175	591.50975694732	394
0	1177	592.571996527642	395
0	1178	594.252364497084	396
0	1180	596.077790785033	397
0	1181	597.889342239277	398
0	1187	599.64833141436	399
0	1191	601.356925671139	400
0	1195	602.599331043345	401
0	1199	603.930342601762	402
0	1200	605.032748888862	403
0	1205	606.900387394159	404
0	1207	608.450158251599	405
0	1210	610.330422776435	406
0	1213	611.716960907598	407
0	1219	613.157893442466	408
0	1222	614.93382944042	409
0	1224	616.035190177999	410
0	1229	617.495804512558	411
0	1232	619.375548440182	412
0	1234	621.351095864234	413
0	1237	622.891360736835	414
0	1241	624.637048436712	415
0	1246	625.751226982252	416
0	1249	627.145742702914	417
0	1251	629.095519340282	418
0	1252	630.639783872908	419
0	1255	632.12974556178	420
0	1257	633.897012176841	421
0	1258	635.706835439113	422
0	1259	637.399429169168	423
0	1260	638.686955789021	424
0	1270	640.329320639056	425
0	1271	641.885984495432	426
0	1277	643.214240187696	427
0	1278	644.329044908202	428
0	1285	645.472307875436	429
0	1290	647.300826192051	430
0	1292	648.469909910261	431
0	1294	650.114053293745	432
0	1298	651.276261011287	433
0	1300	652.935236246241	434
0	1301	654.574782437328	435
0	1302	656.305593379922	436
0	1305	657.930192144271	437
0	1306	659.434215348829	438
0	1308	660.690082582562	439
0	1309	662.13494667938	440
0	1313	663.96871892564	441
0	1315	665.856023125034	442
0	1321	667.200960731981	443
0	1327	669.04525301597	444
0	1332	670.617067176764	445
0	1340	671.956558704757	446
0	1342	673.156251398529	447
0	1343	675.074845365397	448
0	1344	676.315325462175	449
0	1348	677.906293488955	450
0	1349	679.547264361204	451
0	1353	680.893032743977	452
0	1358	682.031858174512	453
0	1363	683.717174290595	454
0	1368	685.663188679758	455
0	1370	687.289366502463	456
0	1374	688.713681335011	457
0	1376	690.548195131039	458
0	1378	692.515436752382	459
0	1381	694.023914267457	460
0	1383	695.588596141579	461
0	1391	696.818715421165	462
0	1393	698.794345852135	463
0	1396	700.235619660614	464
0	1399	702.085602805398	465
0	1411	703.388700063953	466
0	1412	704.64600113794	467
0	1414	706.561413538556	468
0	1415	708.431486633986	469
0	1416	709.687551151642	470
0	1421	710.820257330926	471
0	1422	711.822434736563	472
0	1431	713.664966416925	473
0	1432	715.226170440351	474
0	1433	716.258020554583	475
0	1438	718.005983227545	476
0	1439	719.247844113649	477
0	1443	720.741059225897	478
0	1444	722.386153269472	479
0	1446	724.18938801685	480
0	1453	725.542437801982	481
0	1455	727.210145519494	482
0	1457	728.517952868395	483
0	1462	730.055600322929	484
0	1466	731.813005497825	485
0	1470	733.478679984488	486
0	1475	734.538937220263	487
0	1477	735.782965881896	488
0	1479	737.551116842457	489
0	1481	738.821282633959	490
0	1482	739.854562477122	491
0	1484	741.770195736929	492
0	1490	743.385387489951	493
0	1491	744.756108931645	494
0	1494	745.877550656588	495
0	1495	747.645904126491	496
0	1496	749.528356538301	497
0	1497	750.844358840406	498
0	1498	752.593737812627	499
0	1500	754.273556119909	500
0	1501	756.180224563375	501
0	1502	757.922367666529	502
0	1503	759.096232814395	503
0	1506	760.903282615735	504
0	1511	762.451067704155	505
0	1516	764.388063975989	506
0	1517	765.776413465065	507
0	1520	767.2254813138	508
0	1526	768.26134333099	509
0	1528	770.199482100464	510
0	1529	771.969481713984	511
0	1530	773.349995655387	512
0	1531	775.044999054547	513
0	1534	776.455250786066	514
0	1539	777.794633349551	515
0	1540	779.729006238429	516
0	1545	781.688026791586	517
0	1546	782.722797675206	518
0	1547	784.140988029687	519
0	1549	785.872580733996	520
0	1550	787.314585294722	521
0	1551	788.515922622903	522
0	1552	789.693285193908	523
0	1554	791.582154023143	524
0	1558	793.027335290945	525
0	1559	794.874110146574	526
0	1561	796.776486539197	527
0	1562	798.217696357899	528
0	1563	799.28240113627	529
0	1564	800.393301874779	530
0	1567	801.521771622503	531
0	1572	803.389296449868	532
0	1574	804.97452340476	533
0	1576	806.433037619952	534
0	1579	808.147863496009	535
0	1584	810.01446532659	536
0	1585	811.178230338411	537
0	1590	812.504263921089	538
0	1591	814.053882494483	539
0	1596	815.102786645906	540
0	1602	816.590454147344	541
0	1604	818.357404760232	542
0	1605	819.920092263173	543
0	1606	821.249513172691	544
0	1615	822.291450989346	545
0	1616	823.562792947196	546
0	1618	825.312292351766	547
0	1619	827.185798219551	548
0	1620	828.27259077286	549
0	1621	830.253348654049	550
0	1625	832.147201946151	551
0	1626	833.305923720269	552
0	1631	834.917979330203	553
0	1634	836.692179684207	554
0	1635	838.152033500984	555
0	1638	839.881655542325	556
0	1639	840.948741553031	557
0	1644	842.311294282466	558
0	1645	844.25689528897	559
0	1646	845.448695472819	560
0	1649	846.992795840516	561
0	1652	848.878256538329	562
0	1653	850.529328055592	563
0	1658	852.375249006465	564
0	1660	853.571514297655	565
0	1661	854.625716518756	566
0	1664	856.156896375498	567
0	1666	857.201735296898	568
0	1669	858.777389241295	569
0	1673	860.362849863624	570
0	1679	862.327997187298	571
0	1683	863.853301993717	572
0	1688	865.504503305449	573
0	1689	866.871151636501	574
0	1690	868.559501933546	575
0	1693	870.067485525652	576
0	1696	871.91632908574	577
0	1699	873.196784928354	578
0	1704	874.32609517235	579
0	1706	876.292375320016	580
0	1708	877.558028515807	581
0	1713	879.16092991471	582
0	1715	880.246491109866	583
0	1717	882.19988792218	584
0	1722	883.331400775264	585
0	1723	885.0126057569	586
0	1725	886.040029727068	587
0	1726	887.682842565613	588
0	1728	888.951613652665	589
0	1734	890.161942539416	590
0	1736	892.010591305472	591
0	1737	893.408037945075	592
0	1739	894.611672714032	593
0	1741	896.176268784474	594
0	1745	897.568432288389	595
0	1746	898.708617974217	596
0	1747	899.858520873501	597
0	1751	900.9879111209	598
0	1757	902.095549284159	599
0	1758	903.438859427259	600
0	1761	905.382712534307	601
0	1766	906.612017872189	602
0	1770	908.084978177124	603
0	1771	909.534666112303	604
0	1778	911.084009125042	605
0	1788	912.778981830138	606
0	1790	914.28652049406	607
0	1793	915.698401273373	608
0	1796	917.35183608267	609
0	1797	918.899701915127	610
0	1799	920.269822687055	611
0	1805	922.165541915833	612
0	1810	924.104136671317	613
0	1813	925.883453248446	614
0	1814	927.554650024423	615
0	1820	929.216038610233	616
0	1825	930.777976323763	617
0	1828	931.908194813557	618
0	1830	932.986638412956	619
0	1836	934.542977783508	620
0	1841	935.662583596218	621
0	1846	937.286221300397	622
0	1853	938.593280189117	623
0	1859	939.637150847731	624
0	1862	940.710957482369	625
0	1865	942.025249888334	626
0	1872	943.443275341676	627
0	1873	944.53238757365	628
0	1877	946.141221559053	629
0	1880	947.479800842149	630
0	1886	949.303175371053	631
0	1889	950.578445239371	632
0	1891	952.403361476638	633
0	1892	954.221152458951	634
0	1894	956.139527664665	635
0	1899	957.759403648466	636
0	1904	959.527572864579	637
0	1905	960.826393285911	638
0	1906	962.506116550095	639
0	1907	963.507911950029	640
0	1908	964.844025073718	641
0	1918	966.647629544051	642
0	1920	968.607157045655	643
0	1921	970.146445135266	644
0	1925	971.388513687212	645
0	1928	972.512750423193	646
0	1929	973.584579777584	647
0	1930	974.59533456518	648
0	1935	976.003929095489	649
0	1939	977.624718789856	650
0	1941	979.568118268072	651
0	1947	980.869301672939	652
0	1948	982.098613840209	653
0	1949	984.087366612542	654
0	1952	986.062066260872	655
0	1953	987.806467045478	656
0	1960	988.893295519433	657
0	1965	990.799585432193	658
0	1967	992.435249423987	659
0	1969	993.841210873012	660
0	1970	995.493460664904	661
0	1975	996.973790314427	662
0	1980	998.653852805874	663
0	1981	999.684567780613	664
1	2	0.246547781036	1
1	9	5.074504525135	2
1	17	8.624047205606	3
1	20	10.278454635427	4
1	25	13.126145534531	5
1	35	20.772609341942	6
1	42	23.862806633249	7
1	48	26.570209800498	8
1	54	27.738796717652	9
1	66	38.405664515849	10
1	71	39.594664392279	11
1	78	42.663592211543	12
1	81	44.05864256816	13
1	89	49.05571337709	14
1	96	52.268916891417	15
1	100	53.471709055302	16
1	106	60.235085547459	17
1	109	61.275318482259	18
1	113	63.266192680371	19
1	124	64.336867389555	20
1	134	65.562622033012	21
1	139	66.793299682051	22
1	150	72.470228337023	23
1	153	73.706534468409	24
1	160	75.394456419384	25
1	165	77.690588311209	26
1	173	81.789485089107	27
1	186	94.539393320922	28
1	190	96.479523035337	29
1	199	104.823430974298	30
1	207	111.22255265578	31
1	216	113.528209962549	32
1	220	116.97994245997	33
1	225	119.6336033534	34
1	230	122.729844386219	35
1	235	124.268738295272	36
1	242	125.401173456781	37
1	246	126.650676581462	38
1	249	127.785153686372	39
1	254	131.416534185228	40
1	257	132.681642988955	41
1	260	134.250859499676	42
1	267	135.883492269365	43
1	273	137.158674449781	44
1	279	139.028708752478	45
1	283	140.229389263455	46
1	294	145.366577556741	47
1	303	147.495205973101	48
1	310	148.800517214863	49
1	317	153.595042008183	50
1	324	155.52856063012	51
1	329	157.19132356463	52
1	332	158.405000783649	53
1	340	160.849866401362	54
1	343	162.482696166835	55
1	346	164.356837476841	56
1	354	169.902954745912	57
1	362	170.951285965382	58
1	365	172.070574805107	59
1	369	173.337285304167	60
1	375	174.509449789107	61
1	381	178.316357091494	62
1	392	183.977937151526	63
1	398	186.978053098802	64
1	403	188.929269575849	65
1	410	190.188333900331	66
1	413	191.873828182062	67
1	424	200.386059614708	68
1	429	201.390645365747	69
1	436	202.472372392004	70
1	441	206.078190412603	71
1	444	207.24678016867	72
1	459	212.74691166223	73
1	467	214.711074638918	74
1	475	219.281700670095	75
1	479	222.272305612578	76
1	483	223.327515225353	77
1	488	226.925078905395	78
1	491	228.511382721565	79
1	494	229.722978891437	80
1	503	236.063640473755	81
1	510	239.900359974605	82
1	513	241.753158968186	83
1	525	253.157803508166	84
1	528	254.301562078306	85
1	534	257.627050790362	86
1	542	258.549916774388	87
1	545	259.900421869712	88
1	559	266.059095265597	89
1	563	267.625418857174	90
1	571	271.091062781409	91
1	576	274.938507033602	92
1	580	276.872398988031	93
1	586	278.514045761137	94
1	590	280.341519002859	95
1	595	283.698035412415	96
1	600	286.982246902543	97
1	605	288.347177508874	98
1	610	291.244429882177	99
1	614	293.124030570107	100
1	617	294.103664545844	101
1	624	297.747102786108	102
1	629	299.594941351033	103
1	638	307.626998932791	104
1	645	312.398778104592	105
1	652	315.343777788319	106
1	658	321.101446658348	107
1	661	322.657418149315	108
1	664	323.960089525155	109
1	671	329.547067635922	110
1	681	336.150092122304	111
1	684	338.170696930159	112
1	689	339.306441042037	113
1	696	344.971535031994	114
1	699	346.667418501874	115
1	705	348.835527003632	116
1	709	351.948579305064	117
1	714	355.086353121379	118
1	720	357.138459550122	119
1	727	360.010089577003	120
1	732	361.738448934475	121
1	737	364.81300148495	122
1	742	366.23749120665	123
1	745	367.989836510922	124
1	752	371.443375873399	125
1	759	375.219194091166	126
1	762	377.003648807881	127
1	769	381.711015000058	128
1	774	385.184102697139	129
1	780	390.359349861788	130
1	786	394.629604211807	131
1	794	396.876403313143	132
1	801	399.102636434663	133
1	806	400.456206493498	134
1	810	401.627026793055	135
1	819	406.116541029261	136
1	825	408.835150393916	137
1	830	410.82956282731	138
1	840	417.724085032903	139
1	847	421.109408191342	140
1	855	422.640358814245	141
1	859	424.393568838852	142
1	866	428.447204012134	143
1	879	441.56175339325	144
1	885	445.204527960928	145
1	899	453.309491739194	146
1	906	456.745136281718	147
1	912	460.152814128392	148
1	915	461.868386926716	149
1	919	463.728588772504	150
1	928	472.545162824974	151
1	933	474.609233567305	152
1	941	479.148986710937	153
1	946	480.846462796126	154
1	957	482.168526568081	155
1	962	483.604641994469	156
1	981	500.04184292303	157
1	989	503.961774805682	158
1	998	508.413316830066	159
1	1001	510.514643506561	160
1	1017	520.957003316409	161
1	1024	523.959445888544	162
1	1030	528.950297518039	163
1	1036	532.513096437817	164
1	1039	533.890331805881	165
1	1047	537.401772878096	166
1	1050	538.710758065924	167
1	1053	540.122693514049	168
1	1056	541.063505754341	169
1	1064	548.076935328768	170
1	1074	551.379614326261	171
1	1079	552.971338935437	172
1	1085	556.109997129949	173
1	1090	559.331858480919	174
1	1096	560.924342142634	175
1	1101	563.404023036504	176
1	1108	565.818368821991	177
1	1111	566.807724180117	178
1	1114	568.252147458629	179
1	1119	570.900542944432	180
1	1124	573.911352585193	181
1	1130	576.704624551645	182
1	1136	581.356356208774	183
1	1143	582.961873541582	184
1	1150	587.275313613382	185
1	1156	588.298970935319	186
1	1169	589.661014347821	187
1	1182	597.965197704059	188
1	1188	599.700674866637	189
1	1192	601.434663485828	190
1	1196	602.64379902674	191
1	1201	605.061523213315	192
1	1208	608.549315620508	193
1	1211	610.384317177786	194
1	1214	611.847163353433	195
1	1220	613.359700609102	196
1	1225	616.238177623226	197
1	1230	617.541424195363	198
1	1235	621.406095414154	199
1	1238	623.014447403318	200
1	1242	624.70603571044	201
1	1247	625.868867736094	202
1	1253	630.684020228127	203
1	1261	638.713218973885	204
1	1272	642.036233568744	205
1	1279	644.452524980002	206
1	1286	645.659556764048	207
1	1295	650.148753405173	208
1	1303	656.40403620997	209
1	1310	662.269817660894	210
1	1316	666.044377200171	211
1	1322	667.226467921305	212
1	1328	669.251108234873	213
1	1333	670.803873710245	214
1	1345	676.510120174945	215
1	1350	679.691781899447	216
1	1354	681.029459120687	217
1	1359	682.125264413606	218
1	1364	683.848050348979	219
1	1371	687.480549841588	220
1	1379	692.684369739703	221
1	1384	695.718843590285	222
1	1394	698.908496954072	223
1	1397	700.441735355	224
1	1400	702.120092895508	225
1	1417	709.867131691927	226
1	1423	711.859350454861	227
1	1434	716.362915911355	228
1	1440	719.308531257652	229
1	1447	724.365927049321	230
1	1458	728.59022464157	231
1	1463	730.1055845767	232
1	1467	731.880801928306	233
1	1471	733.567525276985	234
1	1485	741.975525787321	235
1	1492	744.938641119455	236
1	1504	759.27206744112	237
1	1507	761.015359428745	238
1	1512	762.472073340671	239
1	1518	765.908333698983	240
1	1521	767.283670569521	241
1	1532	775.138316461926	242
1	1535	776.630452324786	243
1	1541	779.837176226916	244
1	1555	791.767484333593	245
1	1565	800.5086126676	246
1	1568	801.667437490251	247
1	1577	806.534365478461	248
1	1580	808.206450363621	249
1	1586	811.277384294372	250
1	1592	814.25335172477	251
1	1597	815.149080120998	252
1	1607	821.419378491582	253
1	1622	830.340115177877	254
1	1627	833.410966038361	255
1	1632	835.093081997346	256
1	1636	838.250647948743	257
1	1640	841.075139101735	258
1	1647	845.617288110084	259
1	1650	847.043134827917	260
1	1654	850.670743156295	261
1	1662	854.833926594489	262
1	1667	857.409395087256	263
1	1670	858.824696875984	264
1	1674	860.389270465195	265
1	1680	862.379053361592	266
1	1684	863.990098338413	267
1	1691	868.75780049029	268
1	1694	870.094664704792	269
1	1697	871.988722153051	270
1	1700	873.250459184916	271
1	1709	877.650438784127	272
1	1718	882.26004453388	273
1	1729	889.073293873894	274
1	1742	896.384225527186	275
1	1748	899.935951920701	276
1	1752	901.041716419491	277
1	1759	903.48503750985	278
1	1762	905.57531609222	279
1	1767	906.703540216812	280
1	1772	909.701646954024	281
1	1779	911.203606719622	282
1	1791	914.41915473572	283
1	1794	915.900928806495	284
1	1800	920.372910942987	285
1	1806	922.259577455821	286
1	1811	924.31380752909	287
1	1815	927.591719249026	288
1	1821	929.412838018358	289
1	1826	930.876609743753	290
1	1831	933.078770482441	291
1	1837	934.695548525153	292
1	1842	935.762910607397	293
1	1847	937.318805326916	294
1	1854	938.744324674444	295
1	1860	939.694863740186	296
1	1863	940.8037527003	297
1	1866	942.079554219067	298
1	1874	944.617607277651	299
1	1878	946.19879155852	300
1	1881	947.637211162844	301
1	1887	949.399586987515	302
1	1895	956.198318119557	303
1	1900	957.968833758127	304
1	1909	965.027144610058	305
1	1922	970.230896546276	306
1	1926	971.439520029766	307
1	1931	974.772509059768	308
1	1936	976.174843210775	309
1	1942	979.656659431823	310
1	1950	984.120499213804	311
1	1954	988.00063280524	312
1	1961	989.071503150272	313
1	1971	995.513886464561	314
1	1976	997.123258534923	315
2	2	0.246547781036	1
2	9	5.074504525135	2
2	17	8.624047205606	3
2	20	10.278454635427	4
2	25	13.126145534531	5
2	35	20.772609341942	6
2	42	23.862806633249	7
2	48	26.570209800498	8
2	54	27.738796717652	9
2	66	38.405664515849	10
2	71	39.594664392279	11
2	78	42.663592211543	12
2	81	44.05864256816	13
2	89	49.05571337709	14
2	96	52.268916891417	15
2	100	53.471709055302	16
2	106	60.235085547459	17
2	109	61.275318482259	18
2	113	63.266192680371	19
2	124	64.336867389555	20
2	134	65.562622033012	21
2	139	66.793299682051	22
2	150	72.470228337023	23
2	153	73.706534468409	24
2	160	75.394456419384	25
2	165	77.690588311209	26
2	173	81.789485089107	27
2	186	94.539393320922	28
2	190	96.479523035337	29
2	199	104.823430974298	30
2	207	111.22255265578	31
2	216	113.528209962549	32
2	220	116.97994245997	33
2	225	119.6336033534	34
2	230	122.729844386219	35
2	235	124.268738295272	36
2	242	125.401173456781	37
2	246	126.650676581462	38
2	249	127.785153686372	39
2	254	131.416534185228	40
2	257	132.681642988955	41
2	260	134.250859499676	42
2	267	135.883492269365	43
2	273	137.158674449781	44
2	279	139.028708752478	45
2	283	140.229389263455	46
2	294	145.366577556741	47
2	303	147.495205973101	48
2	310	148.800517214863	49
2	317	153.595042008183	50
2	324	155.52856063012	51
2	329	157.19132356463	52
2	332	158.405000783649	53
2	340	160.849866401362	54
2	343	162.482696166835	55
2	346	164.356837476841	56
2	354	169.902954745912	57
2	362	170.951285965382	58
2	365	172.070574805107	59
2	369	173.337285304167	60
2	375	174.509449789107	61
2	381	178.316357091494	62
2	392	183.977937151526	63
2	398	186.978053098802	64
2	403	188.929269575849	65
2	410	190.188333900331	66
2	413	191.873828182062	67
2	424	200.386059614708	68
2	429	201.390645365747	69
2	436	202.472372392004	70
2	441	206.078190412603	71
2	444	207.24678016867	72
2	459	212.74691166223	73
2	467	214.711074638918	74
2	475	219.281700670095	75
2	479	222.272305612578	76
2	483	223.327515225353	77
2	488	226.925078905395	78
2	491	228.511382721565	79
2	494	229.722978891437	80
2	503	236.063640473755	81
2	510	239.900359974605	82
2	513	241.753158968186	83
2	525	253.157803508166	84
2	528	254.301562078306	85
2	534	257.627050790362	86
2	542	258.549916774388	87
2	545	259.900421869712	88
2	559	266.059095265597	89
2	563	267.625418857174	90
2	571	271.091062781409	91
2	576	274.938507033602	92
2	580	276.872398988031	93
2	586	278.514045761137	94
2	590	280.341519002859	95
2	595	283.698035412415	96
2	600	286.982246902543	97
2	605	288.347177508874	98