version 3
run General-3-20231019-19:32:40-60750
attr configname General
attr datetime 20231019-19:32:40
attr datetimef 20231019-193240
attr experiment General
attr inifile omnetpp.ini
attr iterationvars ""
attr iterationvarsd ""
attr iterationvarsf ""
attr measurement ""
attr network Multihop
attr processid 60750
attr repetition 3
attr replication #3
attr resultdir results
attr runnumber 3
attr seedset 3
config network Multihop
config Multihop.node[*].transmissionTime "uniform(1s, 2s)"
config Multihop.node[*].delayTime "uniform(0.01s, 0.2s)"
config Multihop.node[*].lossProbability 0.3
config record-eventlog true
config sim-time-limit 1000s
config repeat 5

vector 0 Multihop.node[0] txVector ETV
vector 1 Multihop.node[1] rxVector ETV
vector 2 Multihop.node[1] txVector ETV
vector 3 Multihop.node[3] rxVector ETV
vector 4 Multihop.node[3] txVector ETV
vector 5 Multihop.node[4] rxVector ETV
vector 6 Multihop.node[4] txVector ETV
vector 7 Multihop.node[2] rxVector ETV
vector 8 Multihop.node[2] txVector ETV
vector 9 Multihop.node[5] rxVector ETV
vector 10 Multihop.node[5] e2eVector ETV
0	0	0	1
0	1	0.114651601831	2
0	3	1.185376482154	3
0	6	2.306705061416	4
0	7	3.432290377398	5
0	8	4.639533256018	6
0	9	5.691000463977	7
0	11	7.131810302451	8
0	13	8.588643525099	9
0	16	9.867130809068	10
0	18	11.632957183593	11
0	20	13.035317825922	12
0	25	14.341678452981	13
0	34	15.563636337244	14
0	39	16.879403585638	15
0	53	18.465656487341	16
0	56	19.527185416152	17
0	62	20.548411156354	18
0	63	21.724473271589	19
0	64	23.714774460136	20
0	65	25.407425076538	21
0	67	27.15956510657	22
0	71	28.245565821952	23
0	78	29.670295772678	24
0	81	31.036236357479	25
0	88	32.269928366714	26
0	91	33.755022590118	27
0	92	35.097442176961	28
0	96	36.707087891712	29
0	97	37.964294269751	30
0	102	39.2409358165	31
0	105	40.676456368599	32
0	109	42.536509831507	33
0	115	43.694179586904	34
0	124	44.775750629442	35
0	127	46.747374924669	36
0	130	48.566917008325	37
0	132	50.049414046878	38
0	134	51.883101931145	39
0	143	52.975233521616	40
0	148	54.080892726151	41
0	149	55.126390033472	42
0	150	56.182031579386	43
0	153	57.92476885214	44
0	156	59.401700616419	45
0	161	60.475738411607	46
0	163	61.688632747229	47
0	164	62.814453787008	48
0	170	64.807377344068	49
0	172	66.424831526192	50
0	173	67.54945327628	51
0	174	68.580382472673	52
0	176	69.81248086209	53
0	177	71.087118331646	54
0	179	73.029032695177	55
0	184	74.104820899968	56
0	187	75.544242427521	57
0	188	77.337565105711	58
0	190	78.971868575388	59
0	195	80.60992145685	60
0	196	82.221515293303	61
0	199	83.263546147221	62
0	201	84.765469490621	63
0	202	85.835839249963	64
0	208	87.674742657529	65
0	210	89.519018289471	66
0	217	91.37563644799	67
0	218	93.303165724339	68
0	223	94.523502055394	69
0	227	96.239417754883	70
0	231	98.003571997933	71
0	234	99.421794805281	72
0	237	100.989696978197	73
0	239	102.886760586013	74
0	240	104.729001813407	75
0	243	106.361962346665	76
0	250	108.152816528294	77
0	254	109.331816977428	78
0	255	110.385823963515	79
0	256	112.108266166018	80
0	257	113.736291651221	81
0	258	115.144881495347	82
0	267	116.309481043441	83
0	268	117.455076073834	84
0	269	118.992510450145	85
0	273	120.988296758922	86
0	281	122.734967853248	87
0	284	124.680575171092	88
0	285	126.008811523977	89
0	288	127.095055141558	90
0	293	128.559592119024	91
0	298	129.780265772554	92
0	299	131.175017646585	93
0	301	132.197249535077	94
0	308	133.367239552621	95
0	309	134.655214212673	96
0	311	135.682851820324	97
0	316	137.143745839201	98
0	317	138.86323634449	99
0	322	140.343928129017	100
0	325	141.388043349679	101
0	326	143.133409192856	102
0	327	144.863382940484	103
0	332	146.287498840667	104
0	335	147.361182502541	105
0	336	149.045484173415	106
0	339	150.572446430638	107
0	340	152.271375821042	108
0	341	154.033162058867	109
0	346	155.281851990917	110
0	347	156.787818268244	111
0	349	157.848866336583	112
0	354	159.544372626883	113
0	358	160.68855540182	114
0	362	162.402929114714	115
0	368	164.245677651442	116
0	370	166.038083947334	117
0	373	167.669573904318	118
0	375	168.843372350629	119
0	378	170.016114148149	120
0	381	171.954352572631	121
0	384	173.820368391765	122
0	389	175.669075275609	123
0	393	176.797484352324	124
0	396	178.63202153619	125
0	397	179.955855628546	126
0	400	181.430812473945	127
0	405	182.918178133504	128
0	407	184.751863652212	129
0	412	186.588892304409	130
0	414	188.205127667473	131
0	420	190.083936263412	132
0	423	191.329133848032	133
0	424	192.826201377042	134
0	430	194.765659261799	135
0	434	196.046908245028	136
0	437	197.287437832753	137
0	440	199.035820872827	138
0	445	200.390595142335	139
0	448	202.350233708812	140
0	453	203.357851200808	141
0	457	205.052376397956	142
0	458	206.145623979928	143
0	459	207.708300039941	144
0	461	209.384261088982	145
0	465	210.646513392055	146
0	467	211.789605909796	147
0	472	212.867788208486	148
0	473	214.506541836379	149
0	474	216.419439673727	150
0	476	217.962437343388	151
0	477	219.178129529418	152
0	478	220.635857468541	153
0	482	222.581318277004	154
0	484	224.36366420805	155
0	486	225.8903244199	156
0	489	227.725007334328	157
0	490	228.769484837609	158
0	493	230.020577373518	159
0	496	231.981118609965	160
0	501	233.694621506682	161
0	504	235.391750522493	162
0	510	236.851393377012	163
0	513	238.569253524835	164
0	517	240.071523472736	165
0	523	241.224634416703	166
0	524	242.44993785147	167
0	526	243.677920602098	168
0	529	244.705063177341	169
0	531	246.560907654765	170
0	538	247.722812871284	171
0	543	249.675196897772	172
0	550	250.831131324007	173
0	555	252.614109103869	174
0	558	254.526813584215	175
0	564	255.702470331521	176
0	570	257.12382437738	177
0	575	258.486602246131	178
0	581	259.659569451886	179
0	584	261.548529038739	180
0	587	263.014696957844	181
0	593	264.099648701095	182
0	594	265.246761647121	183
0	596	266.41293467914	184
0	604	268.391207954914	185
0	606	270.102076637859	186
0	607	271.747229085139	187
0	616	272.997230927994	188
0	622	274.57183256822	189
0	624	275.713588062975	190
0	629	277.560297204483	191
0	630	279.1702002255	192
0	633	280.334887880202	193
0	639	282.104438072605	194
0	641	283.421143945608	195
0	642	285.035109002212	196
0	650	286.208318366505	197
0	660	287.599969647428	198
0	666	288.808185868034	199
0	668	290.067937025403	200
0	670	291.852870662765	201
0	673	293.314512007705	202
0	678	294.487893108812	203
0	681	295.512185462818	204
0	684	297.015167821965	205
0	685	298.249625570441	206
0	689	299.440611962064	207
0	693	300.775820687714	208
0	698	302.185375032549	209
0	699	303.66717268417	210
0	706	305.589835386093	211
0	707	306.771557014038	212
0	709	308.227074654608	213
0	710	309.777503001572	214
0	711	311.731829112231	215
0	716	312.894910020123	216
0	721	314.474566696978	217
0	726	315.789502689217	218
0	727	317.713591245769	219
0	728	319.376573840922	220
0	730	321.31488871814	221
0	731	322.88988149592	222
0	733	324.883283105514	223
0	735	326.684277692179	224
0	736	328.311951982624	225
0	737	329.704274087048	226
0	741	330.926991147756	227
0	742	332.099444972885	228
0	744	333.284492351649	229
0	747	334.570837540388	230
0	750	336.325161304394	231
0	756	338.149076568963	232
0	758	339.539180936361	233
0	763	340.754588465741	234
0	766	342.028642890345	235
0	767	343.315759809291	236
0	770	345.153575384825	237
0	772	346.270850501557	238
0	774	348.020857357488	239
0	778	349.72129638756	240
0	781	351.649780681658	241
0	786	353.297991082606	242
0	792	354.880306412301	243
0	794	356.565941380405	244
0	795	357.741623526973	245
0	797	359.069847312126	246
0	801	360.284287235768	247
0	806	361.649789373924	248
0	808	362.887858381097	249
0	810	364.128378644886	250
0	811	365.499076818882	251
0	813	366.534242203527	252
0	815	367.815427827484	253
0	820	369.132982148857	254
0	826	371.124748064273	255
0	827	373.05044287287	256
0	829	374.300965354613	257
0	834	376.121499786221	258
0	839	378.114866542465	259
0	842	379.780235353227	260
0	844	380.865004884846	261
0	845	382.458117422483	262
0	852	384.373725260676	263
0	855	385.647223699673	264
0	859	387.329624513931	265
0	861	388.693786533385	266
0	863	389.896918655907	267
0	867	391.794580990982	268
0	869	393.59841218225	269
0	871	395.187880659311	270
0	874	396.564346900743	271
0	875	398.299579880734	272
0	879	400.081728692002	273
0	881	401.432270807282	274
0	884	403.355342891368	275
0	887	404.984474802923	276
0	888	406.36548892136	277
0	889	408.044646228266	278
0	896	409.140714138116	279
0	897	410.739295194459	280
0	902	411.7579401192	281
0	905	413.058330775306	282
0	908	414.701111634562	283
0	909	416.305127394919	284
0	912	417.947494119706	285
0	925	419.868783377178	286
0	932	421.618893289307	287
0	937	423.053786351412	288
0	940	424.816162406999	289
0	945	426.294951608937	290
0	949	427.793356601681	291
0	950	429.44939021703	292
0	952	430.56716486632	293
0	960	432.251715747007	294
0	965	433.354478827976	295
0	967	434.727454077285	296
0	969	436.134085097648	297
0	971	437.438981177117	298
0	980	438.637478764699	299
0	982	440.029189086584	300
0	986	441.854201464746	301
0	988	443.19330534555	302
0	993	445.162362518087	303
0	995	446.279945479305	304
0	996	447.412697711791	305
0	998	448.706738170534	306
0	1000	450.690784867452	307
0	1002	452.112385022286	308
0	1006	453.975049503445	309
0	1008	455.412989034848	310
0	1014	457.347516169138	311
0	1015	458.477964899102	312
0	1016	459.915318987863	313
0	1019	460.956249786606	314
0	1023	462.79597164534	315
0	1030	464.558686832729	316
0	1032	466.525636921701	317
0	1037	468.244364743418	318
0	1039	469.940647764196	319
0	1040	471.059756833426	320
0	1043	472.716699502728	321
0	1045	474.588033814979	322
0	1047	475.740052701271	323
0	1048	477.292746804952	324
0	1049	478.653519833059	325
0	1051	480.300661748805	326
0	1056	481.326246536634	327
0	1057	482.486054645916	328
0	1061	484.302475616401	329
0	1062	486.017743291864	330
0	1063	487.211658471096	331
0	1071	488.352022373182	332
0	1075	489.435806657019	333
0	1080	491.218968407781	334
0	1081	492.607563292206	335
0	1083	494.569683441723	336
0	1084	496.191138668282	337
0	1086	497.720610635418	338
0	1092	498.765709894307	339
0	1098	499.942924764536	340
0	1099	501.225013811204	341
0	1105	502.41906219471	342
0	1112	503.813558048399	343
0	1117	505.724275415361	344
0	1120	507.576702584576	345
0	1128	508.977703728078	346
0	1132	510.665224876784	347
0	1135	512.642520899948	348
0	1143	514.573929179523	349
0	1144	515.751303590664	350
0	1148	517.202652848621	351
0	1150	518.343323701124	352
0	1151	519.71819457907	353
0	1154	520.84799514205	354
0	1156	522.038888019806	355
0	1163	523.183330323145	356
0	1164	524.481856063072	357
0	1166	525.809991146269	358
0	1173	527.285646897339	359
0	1175	529.070805653295	360
0	1180	530.800192531961	361
0	1181	532.677616249136	362
0	1183	533.745237734699	363
0	1188	534.937837234996	364
0	1190	536.326324305795	365
0	1193	537.940170635534	366
0	1196	539.156129351882	367
0	1198	540.794843254443	368
0	1201	541.939979357943	369
0	1203	543.159076737305	370
0	1205	544.663540914254	371
0	1206	546.56390683243	372
0	1208	547.826692041307	373
0	1209	549.009646259778	374
0	1210	550.205250009493	375
0	1212	552.118216774724	376
0	1216	553.873467065459	377
0	1220	555.103006387427	378
0	1221	556.284217136511	379
0	1222	558.214328549401	380
0	1223	559.46628153121	381
0	1226	561.026673279068	382
0	1233	562.88932372473	383
0	1237	564.468615670752	384
0	1239	565.488450166833	385
0	1241	566.832296464889	386
0	1243	568.470944588835	387
0	1244	569.852620108583	388
0	1249	571.591776091437	389
0	1254	573.290474828397	390
0	1258	574.548209692183	391
0	1259	575.800860795257	392
0	1260	577.190729603934	393
0	1263	579.132482212799	394
0	1267	580.628127252048	395
0	1268	582.146281340456	396
0	1269	583.817936261714	397
0	1271	585.063479562587	398
0	1272	586.467875024601	399
0	1276	587.81630996202	400
0	1279	589.80902018451	401
0	1281	591.54865223036	402
0	1288	593.300560508453	403
0	1290	594.580009354808	404
0	1293	596.00200727472	405
0	1295	597.023513990519	406
0	1297	598.486792119052	407
0	1304	599.927679668246	408
0	1306	601.393853945956	409
0	1314	602.479555480946	410
0	1318	604.161213659747	411
0	1322	605.358658263293	412
0	1326	607.335930104433	413
0	1331	608.512587548998	414
0	1336	609.684011422164	415
0	1345	611.55299312791	416
0	1352	612.741844154495	417
0	1355	614.014146860755	418
0	1356	615.92477906176	419
0	1358	617.142354657241	420
0	1364	618.633383481829	421
0	1366	620.523066242058	422
0	1367	621.885998486607	423
0	1368	623.498442979362	424
0	1377	625.47018327198	425
0	1383	627.007852903167	426
0	1385	628.166017257907	427
0	1388	629.947162021483	428
0	1389	631.48509050726	429
0	1390	632.584388615396	430
0	1391	633.967863077596	431
0	1392	635.27409600473	432
0	1393	636.532198782377	433
0	1399	637.97329853924	434
0	1404	639.597516358895	435
0	1411	641.310627467297	436
0	1412	642.650930063631	437
0	1420	643.69134981797	438
0	1422	644.960670119216	439
0	1426	646.724681555125	440
0	1434	648.461397925689	441
0	1436	649.868774829264	442
0	1441	651.054670825665	443
0	1442	652.932277659251	444
0	1447	654.564438130305	445
0	1449	655.686365425884	446
0	1451	656.710743067152	447
0	1454	657.85506358656	448
0	1455	658.873399525712	449
0	1458	660.27266001731	450
0	1460	661.337834894954	451
0	1463	662.435289582302	452
0	1465	664.116297824373	453
0	1468	665.676422372525	454
0	1477	667.486036549853	455
0	1479	668.975686627272	456
0	1480	670.844110167184	457
0	1487	672.560295914597	458
0	1488	674.428740013222	459
0	1494	676.034254438308	460
0	1498	677.833013923437	461
0	1499	679.207336203725	462
0	1501	680.743552435254	463
0	1502	682.57058695198	464
0	1503	683.779450745619	465
0	1504	685.521809597098	466
0	1505	686.876960026397	467
0	1513	688.148355135525	468
0	1521	689.796354436845	469
0	1523	691.679883914831	470
0	1527	693.431895283581	471
0	1528	694.484564925608	472
0	1530	695.863986924588	473
0	1532	697.666050444189	474
0	1533	698.909126017075	475
0	1538	700.77954205947	476
0	1539	702.269252640028	477
0	1544	704.11506526039	478
0	1545	705.980103447633	479
0	1550	707.618090361888	480
0	1552	709.615587918386	481
0	1554	710.911893944554	482
0	1557	712.783916569846	483
0	1559	714.521212810716	484
0	1560	716.217522867089	485
0	1564	718.185797410849	486
0	1565	720.147429419513	487
0	1567	721.969299979805	488
0	1568	723.525506033161	489
0	1569	725.215802309401	490
0	1570	726.786660952326	491
0	1571	728.160597438058	492
0	1576	729.228980753869	493
0	1579	730.778489241442	494
0	1580	732.374752931362	495
0	1581	734.042808457343	496
0	1582	735.785539488373	497
0	1586	737.742541071092	498
0	1588	738.937966675096	499
0	1589	740.302186436084	500
0	1591	741.565239498456	501
0	1596	743.473594846734	502
0	1597	745.440934500256	503
0	1600	747.30749767513	504
0	1602	748.55476155418	505
0	1607	749.781971284719	506
0	1609	751.056375798834	507
0	1613	752.449745016004	508
0	1617	753.687252378156	509
0	1622	755.301367548825	510
0	1626	756.642317245779	511
0	1628	757.951002263063	512
0	1632	759.160295614805	513
0	1636	760.793142950926	514
0	1637	762.449989500754	515
0	1640	763.992301071128	516
0	1642	765.082328405529	517
0	1648	766.25190574333	518
0	1650	768.128711362667	519
0	1651	769.769966536266	520
0	1652	771.021848913812	521
0	1657	772.132861115801	522
0	1659	773.345285325142	523
0	1664	774.794687691441	524
0	1665	776.141277586406	525
0	1668	777.667267319111	526
0	1670	778.740857341856	527
0	1671	779.867431477241	528
0	1676	781.317318414401	529
0	1684	783.287189050641	530
0	1686	784.486152230593	531
0	1689	786.468047575856	532
0	1693	788.461452538677	533
0	1695	790.420165142807	534
0	1697	792.019270645286	535
0	1702	793.416860970733	536
0	1706	794.856030430942	537
0	1707	796.822119259107	538
0	1711	798.666763071734	539
0	1712	800.032613547584	540
0	1717	801.702233520867	541
0	1719	802.962082853838	542
0	1724	803.998277377867	543
0	1731	805.480888901808	544
0	1732	806.620685375592	545
0	1733	808.576794590865	546
0	1736	810.415121223609	547
0	1742	812.223524140258	548
0	1745	813.864748689876	549
0	1746	814.973824203777	550
0	1747	816.217145225097	551
0	1751	817.506749884522	552
0	1753	818.59808067914	553
0	1759	820.385733630805	554
0	1762	821.482756911841	555
0	1764	823.303741506598	556
0	1766	824.902777144051	557
0	1771	826.842227390566	558
0	1778	828.197244746209	559
0	1780	829.500785958552	560
0	1789	830.739541066642	561
0	1792	832.147549463733	562
0	1797	833.620553949213	563
0	1798	834.954059896822	564
0	1800	836.001832422166	565
0	1802	837.411113249901	566
0	1808	838.758959260135	567
0	1810	839.948683808622	568
0	1816	841.502521697729	569
0	1818	842.996151763079	570
0	1824	844.916305555095	571
0	1826	846.690805730009	572
0	1830	848.240610674787	573
0	1835	849.379107629014	574
0	1836	851.001300289593	575
0	1839	852.70106320695	576
0	1841	854.07711814723	577
0	1845	856.010912693171	578
0	1847	857.014290777333	579
0	1850	858.959763406375	580
0	1862	860.440521088261	581
0	1864	861.512212387118	582
0	1865	862.716937571596	583
0	1869	863.90164580971	584
0	1871	865.242151971739	585
0	1872	866.702134435363	586
0	1875	867.819439495047	587
0	1881	869.424588155765	588
0	1885	871.253693304788	589
0	1887	872.812892862195	590
0	1890	874.644902424719	591
0	1891	876.118426455017	592
0	1893	877.526694573993	593
0	1898	878.893715436636	594
0	1900	880.696694956925	595
0	1902	882.239760319535	596
0	1908	883.708975487687	597
0	1909	884.84688806261	598
0	1913	886.690992214317	599
0	1915	887.852760995571	600
0	1918	889.694818443684	601
0	1925	891.157413687855	602
0	1926	893.019427120518	603
0	1934	894.071227291897	604
0	1937	895.386198749831	605
0	1939	896.59155529418	606
0	1941	897.857410883596	607
0	1947	898.894604610577	608
0	1948	900.846807429865	609
0	1950	902.725485910727	610
0	1952	903.854392960966	611
0	1956	905.669284918877	612
0	1957	907.129697072618	613
0	1959	908.875063731168	614
0	1960	909.888199816524	615
0	1961	911.376136874846	616
0	1965	913.178005277245	617
0	1968	914.612519734605	618
0	1969	915.67096833868	619
0	1975	917.460294098659	620
0	1977	918.721544385721	621
0	1980	919.973975709938	622
0	1981	921.948904767698	623
0	1983	923.100110690408	624
0	1989	924.709086347903	625
0	1990	926.064446549463	626
0	1993	927.528649143009	627
0	1997	928.657235884173	628
0	1998	930.105202768995	629
0	2001	932.093258224959	630
0	2003	933.382359828866	631
0	2006	935.212337250189	632
0	2009	936.543973281347	633
0	2013	937.56051792374	634
0	2017	939.304803266256	635
0	2018	940.974813780581	636
0	2019	942.570471280554	637
0	2020	943.707288758896	638
0	2026	945.361949280204	639
0	2029	946.74562645035	640
0	2030	947.809299168476	641
0	2032	949.104525317039	642
0	2035	950.527926235061	643
0	2038	951.871672871357	644
0	2041	953.174659894148	645
0	2043	954.746978230376	646
0	2046	955.930919202345	647
0	2053	957.222693959551	648
0	2055	958.96837389569	649
0	2056	960.439302318331	650
0	2058	961.948009493595	651
0	2061	963.596017653888	652
0	2068	965.17648740166	653
0	2074	966.537202667977	654
0	2079	967.915025440344	655
0	2088	969.589055428115	656
0	2094	970.906448229748	657
0	2095	972.471468129262	658
0	2097	974.151906923225	659
0	2098	975.974558479452	660
0	2102	977.266480991683	661
0	2103	978.507173305909	662
0	2108	979.887533196547	663
0	2111	981.433458804219	664
0	2113	982.587152591973	665
0	2117	984.087512180741	666
0	2120	985.560437649555	667
0	2121	986.765491048173	668
0	2125	988.576327883239	669
0	2127	990.045105137463	670
0	2134	991.513021197236	671
0	2138	992.823342927798	672
0	2140	994.423432023098	673
0	2143	996.170212750855	674
0	2150	997.573468792318	675
0	2154	998.924043195621	676
1	4	1.313545634032	1
1	14	8.737131956751	2
1	21	13.166775620606	3
1	26	14.435392991829	4
1	35	15.690562655551	5
1	40	16.953266279148	6
1	54	18.531764817431	7
1	57	19.638850118635	8
1	68	27.306033782012	9
1	72	28.42132416042	10
1	79	29.795336241689	11
1	82	31.094783110632	12
1	89	32.376431444683	13
1	93	35.140359476797	14
1	98	38.032125156762	15
1	103	39.274260993009	16
1	106	40.737951969952	17
1	110	42.645936367953	18
1	116	43.772639495256	19
1	125	44.865614196184	20
1	128	46.82484960005	21
1	135	51.944132330213	22
1	144	53.078644034733	23
1	151	56.259922000715	24
1	154	58.042863145054	25
1	157	59.512694551154	26
1	165	62.916825302363	27
1	180	73.101159606692	28
1	185	74.195497158815	29
1	191	79.116344018467	30
1	197	82.320796003675	31
1	203	85.986991721849	32
1	211	89.690320232437	33
1	219	93.371032481544	34
1	224	94.693420464095	35
1	228	96.298489269736	36
1	232	98.208811280675	37
1	235	99.463631929419	38
1	241	104.899328055679	39
1	244	106.568672970219	40
1	251	108.305674496785	41
1	259	115.234008352736	42
1	270	119.021831152668	43
1	274	121.117246802191	44
1	282	122.781240942092	45
1	286	126.093920584451	46
1	289	127.116327043227	47
1	294	128.741303587953	48
1	302	132.331876584992	49
1	312	135.77454822034	50
1	318	138.899238458151	51
1	323	140.461288611482	52
1	328	144.970013883101	53
1	333	146.407996694395	54
1	337	149.130364733681	55
1	342	154.138023510578	56
1	350	157.983856355219	57
1	355	159.681648446755	58
1	359	160.740971448806	59
1	363	162.508173293882	60
1	371	166.187592732055	61
1	376	169.012379939154	62
1	379	170.092656521069	63
1	382	172.046499610868	64
1	385	173.891527623966	65
1	390	175.786065114311	66
1	394	176.850829469357	67
1	398	180.140587192635	68
1	401	181.53087398188	69
1	408	184.874803593031	70
1	415	188.228543383424	71
1	421	190.116584561161	72
1	425	193.032235887902	73
1	431	194.828736187154	74
1	435	196.18184264491	75
1	438	197.49506474649	76
1	441	199.079444569199	77
1	446	200.45241855878	78
1	449	202.463088913645	79
1	454	203.503826282882	80
1	462	209.570502309367	81
1	468	211.960653938943	82
1	479	220.755132594169	83
1	487	226.088326765804	84
1	491	228.834671705274	85
1	494	230.156297697198	86
1	497	232.066984339942	87
1	502	233.84310840076	88
1	505	235.547619012768	89
1	511	237.001375419858	90
1	514	238.707469999976	91
1	518	240.164856141765	92
1	527	243.79901501268	93
1	532	246.702940857115	94
1	539	247.764719613589	95
1	544	249.817115743184	96
1	551	250.854573096477	97
1	556	252.688792123427	98
1	559	254.618826641173	99
1	565	255.723657857551	100
1	571	257.205073971158	101
1	576	258.509231102388	102
1	582	259.744087204279	103
1	585	261.618119772854	104
1	588	263.049543422763	105
1	597	266.54428827097	106
1	608	271.891517621649	107
1	617	273.189694858821	108
1	625	275.869608987673	109
1	631	279.352589512536	110
1	634	280.389656649852	111
1	643	285.099489144437	112
1	651	286.267403023088	113
1	661	287.765782972727	114
1	671	292.004958727521	115
1	674	293.47023416475	116
1	679	294.630069116471	117
1	682	295.706882783147	118
1	686	298.429202147371	119
1	690	299.478472019802	120
1	694	300.797911575025	121
1	700	303.752095127391	122
1	712	311.811603216662	123
1	717	313.086022804345	124
1	722	314.649342906378	125
1	738	329.894609924299	126
1	745	333.364696375296	127
1	748	334.738189254803	128
1	751	336.47483981504	129
1	759	339.590811646717	130
1	764	340.808868349725	131
1	768	343.497036438521	132
1	775	348.204077173849	133
1	779	349.80211343475	134
1	782	351.842414627062	135
1	787	353.365875827307	136
1	798	359.192057468403	137
1	802	360.340307196177	138
1	816	367.942874847167	139
1	821	369.222091499481	140
1	830	374.461040758626	141
1	835	376.263538338826	142
1	840	378.230076775549	143
1	846	382.602899706618	144
1	853	384.418946722169	145
1	856	385.749670369071	146
1	864	389.967824581541	147
1	872	395.291666017988	148
1	876	398.441275163056	149
1	882	401.466851380505	150
1	885	403.545082197909	151
1	890	408.237296749494	152
1	898	410.825442451858	153
1	903	411.957002833805	154
1	906	413.088172943324	155
1	910	416.371696128641	156
1	913	418.002023045376	157
1	926	419.949932823693	158
1	933	421.819933644919	159
1	938	423.229460101855	160
1	941	424.975770340477	161
1	946	426.336991280324	162
1	953	430.621796245814	163
1	961	432.323618231247	164
1	972	437.550716834235	165
1	983	440.177702344546	166
1	989	443.376862843807	167
1	1003	452.229496100004	168
1	1009	455.531860064426	169
1	1017	460.082699798024	170
1	1020	461.039431461168	171
1	1024	462.96309545251	172
1	1033	466.683617861554	173
1	1041	471.267470906555	174
1	1052	480.470795993841	175
1	1058	482.593340380543	176
1	1064	487.281282148056	177
1	1072	488.547769263891	178
1	1076	489.587907349373	179
1	1087	497.926879680569	180
1	1093	498.818681701187	181
1	1100	501.272100870139	182
1	1106	502.543914493632	183
1	1113	503.94374004738	184
1	1118	505.756520810375	185
1	1121	507.657569681951	186
1	1129	509.088503192638	187
1	1133	510.814037718632	188
1	1136	512.832748733077	189
1	1145	515.866349688642	190
1	1152	519.81275125246	191
1	1157	522.121158523209	192
1	1167	526.01950746474	193
1	1176	529.177166228277	194
1	1184	533.925458262939	195
1	1191	536.465806449142	196
1	1194	538.130987082927	197
1	1199	540.891326471767	198
1	1213	552.294992897724	199
1	1217	554.070791819577	200
1	1224	559.500836561205	201
1	1227	561.124204314645	202
1	1234	562.912292193422	203
1	1245	569.912188483988	204
1	1250	571.669293433269	205
1	1255	573.409578386568	206
1	1261	577.223528815209	207
1	1264	579.165988721159	208
1	1273	586.633234688732	209
1	1277	587.888324109955	210
1	1282	591.675194565785	211
1	1291	594.672033915944	212
1	1298	598.602387809243	213
1	1307	601.596929571894	214
1	1319	604.268106784807	215
1	1323	605.559189522481	216
1	1327	607.402322536586	217
1	1332	608.556659789859	218
1	1337	609.711495530977	219
1	1346	611.735432927682	220
1	1353	612.870244915968	221
1	1359	617.286212081044	222
1	1369	623.585764351122	223
1	1378	625.550462400124	224
1	1386	628.200646151484	225
1	1394	636.612247326889	226
1	1400	638.016907216872	227
1	1405	639.62968020542	228
1	1413	642.761845256812	229
1	1423	645.085763840877	230
1	1427	646.926245169546	231
1	1437	649.902440800375	232
1	1443	652.956041370482	233
1	1452	656.784555106984	234
1	1456	658.920312101695	235
1	1461	661.544335243	236
1	1466	664.245152486739	237
1	1469	665.790703732508	238
1	1481	670.926185642794	239
1	1489	674.461277656915	240
1	1495	676.12244483957	241
1	1506	687.055941929543	242
1	1514	688.257444522566	243
1	1524	691.868443798915	244
1	1534	699.101217065086	245
1	1540	702.382482681794	246
1	1546	706.12733062889	247
1	1555	711.082346838075	248
1	1561	716.271143737226	249
1	1572	728.3165820896	250
1	1577	729.367789530673	251
1	1583	735.87528838891	252
1	1592	741.699596175737	253
1	1598	745.592066143515	254
1	1603	748.594316137897	255
1	1610	751.171272867154	256
1	1614	752.520084782538	257
1	1618	753.793608458133	258
1	1623	755.456474440088	259
1	1629	758.052191987733	260
1	1633	759.28778987743	261
1	1638	762.562768246748	262
1	1643	765.22354343754	263
1	1653	771.087932552783	264
1	1660	773.38160261077	265
1	1666	776.27020685294	266
1	1672	780.01721119093	267
1	1677	781.402384963036	268
1	1687	784.614057257633	269
1	1690	786.547710364478	270
1	1698	792.118120362613	271
1	1703	793.610948907141	272
1	1708	796.853050434994	273
1	1713	800.197204306738	274
1	1720	803.020258370353	275
1	1725	804.161958943204	276
1	1734	808.662814954239	277
1	1737	810.439086680411	278
1	1743	812.428939314351	279
1	1748	816.283810641641	280
1	1754	818.655463276574	281
1	1760	820.584501113243	282
1	1767	825.020382126881	283
1	1772	826.949771179097	284
1	1781	829.544817418423	285
1	1790	830.802160265373	286
1	1793	832.235321338832	287
1	1803	837.586663995	288
1	1811	839.968860515497	289
1	1819	843.030924962335	290
1	1827	846.734940797602	291
1	1831	848.394450893292	292
1	1837	851.179615370519	293
1	1842	854.27162918231	294
1	1848	857.072663643684	295
1	1851	859.021043126005	296
1	1866	862.777118036418	297
1	1873	866.781571462673	298
1	1876	867.884932087294	299
1	1882	869.550262023376	300
1	1888	872.998922103473	301
1	1894	877.673887287881	302
1	1903	882.4291451949	303
1	1910	884.911866175177	304
1	1916	887.952514420031	305
1	1919	889.730460183392	306
1	1927	893.079979323237	307
1	1935	894.279620519558	308
1	1942	898.005746818583	309
1	1953	904.05628344693	310
1	1962	911.42940934789	311
1	1966	913.241570013862	312
1	1970	915.867804433983	313
1	1978	918.782577190177	314
1	1984	923.196390278868	315
1	1991	926.113864979545	316
1	1994	927.603015388174	317
1	1999	930.127402989951	318
1	2004	933.450822690815	319
1	2007	935.407039352847	320
1	2010	936.65760288253	321
1	2014	937.687432607455	322
1	2021	943.786776456651	323
1	2027	945.531719411643	324
1	2033	949.225982020434	325
1	2036	950.703072789839	326
1	2039	951.948442952716	327
1	2044	954.919827014713	328
1	2047	956.084249279043	329
1	2059	962.14393527613	330
1	2062	963.639617730271	331
1	2069	965.240326222951	332
1	2075	966.575996365486	333
1	2080	968.025220357593	334
1	2089	969.749351603192	335
1	2099	976.143876079027	336
1	2104	978.684998607431	337
1	2109	980.054280961038	338
1	2114	982.618644819172	339
1	2118	984.272396204424	340
1	2122	986.940443958564	341
1	2128	990.169716213379	342
1	2135	991.636138197196	343
1	2141	994.455567718752	344
1	2144	996.210478041243	345
1	2151	997.612350823733	346
1	2155	998.97501600595	347
2	4	1.313545634032	1
2	14	8.737131956751	2
2	21	13.166775620606	3
2	26	14.435392991829	4
2	35	15.690562655551	5
2	40	16.953266279148	6
2	54	18.531764817431	7
2	57	19.638850118635	8
2	68	27.306033782012	9
2	72	28.42132416042	10
2	79	29.795336241689	11
2	82	31.094783110632	12
2	89	32.376431444683	13
2	93	35.140359476797	14
2	98	38.032125156762	15
2	103	39.274260993009	16
2	106	40.737951969952	17
2	110	42.645936367953	18
2	116	43.772639495256	19
2	125	44.865614196184	20
2	128	46.82484960005	21
2	135	51.944132330213	22
2	144	53.078644034733	23
2	151	56.259922000715	24
2	154	58.042863145054	25
2	157	59.512694551154	26
2	165	62.916825302363	27
2	180	73.101159606692	28
2	185	74.195497158815	29
2	191	79.116344018467	30
2	197	82.320796003675	31
2	203	85.986991721849	32
2	211	89.690320232437	33
2	219	93.371032481544	34
2	224	94.693420464095	35
2	228	96.298489269736	36
2	232	98.208811280675	37
2	235	99.463631929419	38
2	241	104.899328055679	39
2	244	106.568672970219	40
2	251	108.305674496785	41
2	259	115.234008352736	42
2	270	119.021831152668	43
2	274	121.117246802191	44
2	282	122.781240942092	45
2	286	126.093920584451	46
2	289	127.116327043227	47
2	294	128.741303587953	48
2	302	132.331876584992	49
2	312	135.77454822034	50