version 3
run General-0-20231019-18:57:58-54425
attr configname General
attr datetime 20231019-18:57:58
attr datetimef 20231019-185758
attr experiment General
attr inifile omnetpp.ini
attr iterationvars ""
attr iterationvarsd ""
attr iterationvarsf ""
attr measurement ""
attr network Multihop
attr processid 54425
attr repetition 0
attr replication #0
attr resultdir results
attr runnumber 0
attr seedset 0
config network Multihop
config Multihop.node[*].transmissionTime "uniform(1s, 2s)"
config Multihop.node[*].delayTime "uniform(0.01s, 0.2s)"
config Multihop.node[0].lossProbability 0.3
config Multihop.node[1].lossProbability 0.3
config Multihop.node[2].lossProbability 0.3
config Multihop.node[3].lossProbability 0.3/2
config Multihop.node[4].lossProbability 0.3/2
config Multihop.node[5].lossProbability 0.3*2
config Multihop.node[6].lossProbability 0.3*2
config Multihop.node[7].lossProbability 0.3*3
config record-eventlog true
config sim-time-limit 1000s
config repeat 5

vector 0 Multihop.node[0] txVector ETV
vector 1 Multihop.node[2] rxVector ETV
vector 2 Multihop.node[2] txVector ETV
vector 3 Multihop.node[4] rxVector ETV
vector 4 Multihop.node[4] txVector ETV
vector 5 Multihop.node[1] rxVector ETV
vector 6 Multihop.node[1] txVector ETV
vector 7 Multihop.node[6] rxVector ETV
vector 8 Multihop.node[6] txVector ETV
vector 9 Multihop.node[3] rxVector ETV
vector 10 Multihop.node[3] txVector ETV
vector 11 Multihop.node[7] rxVector ETV
vector 12 Multihop.node[7] e2eVector ETV
vector 13 Multihop.node[5] rxVector ETV
vector 14 Multihop.node[5] txVector ETV
0	0	0	1
0	1	0.114274565438	2
0	5	1.707119181827	3
0	6	3.144706391804	4
0	7	5.036479393561	5
0	8	7.000142157619	6
0	12	8.383583678939	7
0	13	9.72097984057	8
0	14	11.369151717127	9
0	16	12.737393254489	10
0	20	14.607405399746	11
0	26	16.328038051334	12
0	27	17.896471999661	13
0	36	18.915261797682	14
0	39	20.04418809603	15
0	41	21.482789609423	16
0	42	23.135579928365	17
0	43	24.770638805423	18
0	51	26.765938371029	19
0	53	27.863039642181	20
0	57	29.834984641131	21
0	59	30.874172430094	22
0	60	32.233616899075	23
0	61	33.714510435313	24
0	69	35.40317162157	25
0	73	37.070581997819	26
0	74	38.623403481981	27
0	76	39.788343942566	28
0	82	41.46616048187	29
0	87	43.357714912696	30
0	93	45.033153989893	31
0	95	46.457009033841	32
0	97	47.927141222247	33
0	100	49.217218832188	34
0	101	50.515501160017	35
0	105	52.085466071573	36
0	107	53.306728754268	37
0	113	54.742593673599	38
0	116	56.64724141786	39
0	121	58.42629243604	40
0	126	59.846367803711	41
0	127	61.596367051435	42
0	130	62.935770867468	43
0	136	64.106757460238	44
0	140	65.683986045496	45
0	144	67.434830292437	46
0	148	69.379202680971	47
0	152	70.435621015571	48
0	157	71.460299744347	49
0	159	72.677196725348	50
0	160	73.814417146223	51
0	164	75.043636469247	52
0	165	76.672618318193	53
0	175	78.545268975741	54
0	177	80.275711156272	55
0	178	81.55333986467	56
0	180	83.140124210001	57
0	182	84.814971555102	58
0	186	86.531831235004	59
0	188	87.656664295898	60
0	194	89.42198954833	61
0	195	91.099252855017	62
0	196	92.162291147591	63
0	200	93.717940384833	64
0	211	94.781895650629	65
0	219	96.129129162369	66
0	220	98.109828835897	67
0	225	99.515949323386	68
0	228	100.817780197676	69
0	231	102.770650868848	70
0	232	104.653510867231	71
0	233	105.90413358699	72
0	237	107.581545411455	73
0	238	109.30858967531	74
0	239	110.578917578873	75
0	244	111.710400374685	76
0	246	112.99391922316	77
0	252	114.503261288939	78
0	254	115.776083185881	79
0	257	117.555275156706	80
0	263	119.024773462055	81
0	264	120.560950961508	82
0	266	122.242343473559	83
0	268	123.568028240077	84
0	269	124.755159132959	85
0	272	126.659143084505	86
0	277	128.117747041009	87
0	278	129.87452568727	88
0	280	131.510586743787	89
0	282	132.520353175778	90
0	285	133.978492000684	91
0	289	135.930366475446	92
0	294	137.024824391197	93
0	297	138.33181044374	94
0	298	139.863659625718	95
0	302	141.709017310137	96
0	303	143.163179709189	97
0	304	144.4898805959	98
0	305	145.722624728069	99
0	307	147.33708943481	100
0	312	148.850164301306	101
0	313	150.341189042045	102
0	319	152.322828722265	103
0	321	153.388132928484	104
0	322	154.458580117752	105
0	326	156.142153080166	106
0	332	157.696840891461	107
0	334	159.145924318428	108
0	337	161.131415748815	109
0	338	163.123426992991	110
0	339	164.372847036072	111
0	341	165.478753194525	112
0	345	166.836860669623	113
0	351	168.215917565473	114
0	353	169.954307903149	115
0	356	171.588305598437	116
0	357	173.287880659881	117
0	358	175.255846230858	118
0	360	177.250247018957	119
0	361	178.861995436564	120
0	362	180.533902455434	121
0	366	181.981418324481	122
0	367	183.949212997067	123
0	371	185.496097893766	124
0	372	187.471849582703	125
0	374	188.744858486192	126
0	381	189.993271946521	127
0	383	191.246914469018	128
0	388	192.759366129372	129
0	390	194.398393513947	130
0	391	195.942071568067	131
0	395	197.224771214961	132
0	398	198.782836313206	133
0	400	200.208343949248	134
0	402	201.487411892819	135
0	406	202.586828285674	136
0	411	204.234024937576	137
0	417	205.743832129365	138
0	423	207.570656347167	139
0	428	209.493004327253	140
0	433	210.667776334644	141
0	439	212.575651925602	142
0	440	214.093264027811	143
0	444	215.567932012338	144
0	451	216.872378378022	145
0	453	218.479627755317	146
0	454	220.112689764784	147
0	459	222.003342575007	148
0	466	223.660362351066	149
0	468	225.22442670477	150
0	469	226.922675186614	151
0	470	228.258173361499	152
0	472	229.405858939592	153
0	476	230.543110290854	154
0	479	231.650114429262	155
0	485	233.585946508529	156
0	490	234.676179490596	157
0	491	236.149369541401	158
0	495	237.629123415178	159
0	498	238.900375492018	160
0	501	240.245093614174	161
0	503	241.676853739502	162
0	513	243.302211938039	163
0	516	245.261354188048	164
0	520	246.796271042744	165
0	524	248.644611194576	166
0	525	249.72992212147	167
0	526	250.951318568397	168
0	527	252.051332630763	169
0	528	253.316372331312	170
0	531	254.382521791697	171
0	538	255.942204190964	172
0	539	257.869416002032	173
0	544	258.898368554503	174
0	550	260.262913184088	175
0	551	262.114766889798	176
0	552	263.510310718405	177
0	553	264.743388549739	178
0	558	266.328820621676	179
0	564	267.937413925386	180
0	566	269.309332676546	181
0	570	271.287880224024	182
0	576	273.168558344792	183
0	577	274.94159332345	184
0	582	276.688177610829	185
0	584	278.663167421788	186
0	586	280.481200727018	187
0	588	282.263290102676	188
0	592	283.687953108771	189
0	594	285.460218685994	190
0	596	286.852015624371	191
0	598	288.076482561267	192
0	606	289.716187662295	193
0	608	290.801254465095	194
0	614	292.013688825154	195
0	615	293.278021585512	196
0	620	294.626378335142	197
0	624	296.289696253919	198
0	628	297.339045200114	199
0	632	299.007651042974	200
0	637	300.381162052125	201
0	640	302.091617806431	202
0	646	303.450613084098	203
0	655	304.651623367414	204
0	656	305.841376986204	205
0	658	307.362251781009	206
0	663	309.15784214678	207
0	666	310.644252598134	208
0	672	312.142432162852	209
0	677	313.717966048594	210
0	678	315.466190017143	211
0	682	316.9635468508	212
0	687	318.305889221688	213
0	691	319.860534278059	214
0	694	321.098545552313	215
0	696	322.683138126123	216
0	700	323.981325482565	217
0	701	325.32902347095	218
0	705	326.571660797192	219
0	707	328.29943206472	220
0	711	329.618349385528	221
0	717	331.098410271421	222
0	720	332.233228915917	223
0	726	333.513342660234	224
0	729	334.803590702905	225
0	730	336.608854558167	226
0	736	338.332795955089	227
0	740	339.36485157659	228
0	741	340.879773782182	229
0	748	342.818185806822	230
0	749	343.848846855655	231
0	750	345.073260472936	232
0	751	347.026936173986	233
0	753	348.60925590744	234
0	761	350.404243690509	235
0	765	352.182519856456	236
0	767	353.532845045521	237
0	771	355.47669589807	238
0	772	356.926905063993	239
0	778	358.806761748471	240
0	781	360.660007728112	241
0	783	361.673516431439	242
0	785	363.350560964632	243
0	788	364.661190183216	244
0	789	366.366138243663	245
0	791	367.78477510492	246
0	793	369.334829612017	247
0	796	370.385905091033	248
0	798	371.386569306568	249
0	799	372.57201727837	250
0	805	374.467928468563	251
0	806	375.608885948394	252
0	812	377.576223745557	253
0	814	379.54924037595	254
0	816	380.649492124642	255
0	818	382.353763417887	256
0	824	383.906202476087	257
0	828	385.479646415531	258
0	830	386.643330671906	259
0	836	387.699702835025	260
0	837	389.330534645438	261
0	841	391.328528649023	262
0	842	393.024475511013	263
0	846	394.436909060309	264
0	850	396.165467793903	265
0	852	397.662015921519	266
0	853	399.059041758616	267
0	854	400.335691489129	268
0	855	401.842034409604	269
0	857	403.191932085053	270
0	862	404.555413846009	271
0	863	406.442776913139	272
0	867	407.448091953144	273
0	868	408.551670418203	274
0	869	409.56976677602	275
0	873	411.160352153553	276
0	878	412.312635258854	277
0	879	414.049620500848	278
0	889	415.775404211449	279
0	896	417.155298113207	280
0	897	418.808297873557	281
0	901	420.152587038314	282
0	903	421.184161633568	283
0	904	422.235168947222	284
0	906	423.862329657039	285
0	907	425.74812599792	286
0	913	427.646236962256	287
0	915	429.104449221016	288
0	918	430.98109762798	289
0	923	432.120230917204	290
0	924	433.751949447524	291
0	925	435.214532185197	292
0	927	436.860861366466	293
0	931	438.666323806942	294
0	935	439.723794436399	295
0	939	440.842711378439	296
0	944	442.036769466326	297
0	947	443.28334651826	298
0	949	444.921186813936	299
0	950	446.707375316034	300
0	956	448.455398113551	301
0	957	450.020025324161	302
0	960	451.145836480046	303
0	967	452.496223500083	304
0	968	454.417283097599	305
0	972	455.657979076812	306
0	974	457.595843452346	307
0	976	459.244875042551	308
0	983	460.956745493776	309
0	985	462.571515379325	310
0	987	464.555545684267	311
0	989	466.421680392781	312
0	990	467.974326268853	313
0	994	469.225526382066	314
0	995	470.891397779425	315
0	996	472.292277348078	316
0	998	474.060472009321	317
0	999	475.98843037229	318
0	1000	477.491879652338	319
0	1002	478.68825379977	320
0	1006	480.637533703903	321
0	1010	481.638250664659	322
0	1012	483.215840756046	323
0	1014	484.941156988116	324
0	1018	486.629840410398	325
0	1025	488.515958421714	326
0	1027	490.382250002669	327
0	1029	491.898373705651	328
0	1033	493.068308692276	329
0	1037	494.608356651701	330
0	1039	495.670487458436	331
0	1046	497.6285546353	332
0	1049	499.115702760025	333
0	1055	500.140893052417	334
0	1056	502.013883630597	335
0	1057	504.013737464408	336
0	1058	505.094022298316	337
0	1060	506.237100721654	338
0	1061	507.338955337499	339
0	1063	508.473128974057	340
0	1064	510.434970233442	341
0	1066	512.195249341048	342
0	1070	513.729227262402	343
0	1074	515.674646213038	344
0	1076	517.376623804068	345
0	1078	519.148255932696	346
0	1085	520.43314145677	347
0	1086	521.704692556842	348
0	1089	523.312237916833	349
0	1090	524.617426619951	350
0	1091	526.600860600213	351
0	1092	528.502991821004	352
0	1096	529.96171470321	353
0	1100	531.747269737387	354
0	1101	533.645357494794	355
0	1107	534.966830425982	356
0	1116	536.684949465881	357
0	1117	538.444439566315	358
0	1118	539.570146862271	359
0	1119	541.54324266556	360
0	1120	542.692741202277	361
0	1122	544.392277117207	362
0	1125	545.614101148065	363
0	1129	547.412180165615	364
0	1131	549.003177967476	365
0	1132	550.775108836679	366
0	1133	552.188194964867	367
0	1143	553.898253271909	368
0	1149	554.985208615515	369
0	1150	556.296138999838	370
0	1152	557.794573785824	371
0	1153	559.113993455976	372
0	1158	560.220799799863	373
0	1161	561.901914634829	374
0	1165	563.135623117298	375
0	1167	564.776187707991	376
0	1170	565.796328960773	377
0	1171	567.104986757128	378
0	1175	569.061928350566	379
0	1176	570.390882114502	380
0	1178	571.41057375804	381
0	1182	572.44977605957	382
0	1185	574.170095326932	383
0	1186	575.758252999367	384
0	1188	576.792520039569	385
0	1190	578.218337584141	386
0	1192	579.591392112051	387
0	1194	581.213957633677	388
0	1195	582.927675398619	389
0	1202	584.84308304204	390
0	1205	586.493997042387	391
0	1208	587.877063401596	392
0	1210	589.806129553675	393
0	1211	590.969393215229	394
0	1212	592.666220549814	395
0	1218	593.893651930237	396
0	1222	595.671690777032	397
0	1229	597.267676483928	398
0	1238	598.377924047732	399
0	1243	599.628221909371	400
0	1246	601.113163925563	401
0	1247	602.973190497463	402
0	1255	604.591263602809	403
0	1256	606.419744098182	404
0	1257	608.272433106643	405
0	1258	609.305209010462	406
0	1260	610.549366042805	407
0	1262	612.104751525303	408
0	1264	613.621584564769	409
0	1268	614.70579206184	410
0	1269	616.271637159954	411
0	1273	617.691870692973	412
0	1279	618.941673647934	413
0	1281	619.945383421001	414
0	1282	621.357864909894	415
0	1283	623.201523258905	416
0	1287	624.72463210681	417
0	1291	625.840193415848	418
0	1292	626.885870500324	419
0	1296	628.734730285681	420
0	1300	630.123063451233	421
0	1302	632.099466053391	422
0	1303	633.337438599061	423
0	1304	635.099365110364	424
0	1306	636.990129458107	425
0	1307	638.652196877724	426
0	1308	640.203772473935	427
0	1309	641.640304864006	428
0	1315	642.817642014794	429
0	1317	644.025154744595	430
0	1319	645.395206780027	431
0	1320	647.061166698899	432
0	1326	648.145377961075	433
0	1328	649.851705513982	434
0	1333	651.022877561947	435
0	1337	653.002202102769	436
0	1354	654.881394661352	437
0	1358	656.116358544067	438
0	1363	657.722620447953	439
0	1364	659.689667244763	440
0	1365	661.564509605612	441
0	1366	663.120172234574	442
0	1371	664.221456478439	443
0	1377	665.536921634195	444
0	1382	666.692292817957	445
0	1388	667.916010582675	446
0	1390	669.049158775802	447
0	1392	670.405414740178	448
0	1393	671.61501747495	449
0	1394	672.962477143942	450
0	1399	674.416642413097	451
0	1405	675.61083662216	452
0	1406	677.562737003289	453
0	1407	678.676949464338	454
0	1409	680.491346919531	455
0	1411	681.632256683515	456
0	1413	682.735449810367	457
0	1414	684.342630451865	458
0	1416	686.300118992425	459
0	1419	687.787957518681	460
0	1423	689.607714529702	461
0	1426	691.15713311205	462
0	1428	693.044967417692	463
0	1432	694.364560010697	464
0	1434	695.943169988779	465
0	1435	697.078001992631	466
0	1436	698.458451671147	467
0	1438	700.368861223891	468
0	1444	701.37810921538	469
0	1449	702.482010671723	470
0	1450	703.670091685227	471
0	1454	705.565384080487	472
0	1455	706.750500475376	473
0	1456	707.756703893974	474
0	1463	708.76598833999	475
0	1465	710.764187294844	476
0	1466	712.310276667442	477
0	1471	713.674561235908	478
0	1474	715.495461220474	479
0	1476	717.246807650982	480
0	1478	718.251595031091	481
0	1482	720.231970105872	482
0	1488	721.529940368228	483
0	1492	723.201508687429	484
0	1493	724.922706805022	485
0	1494	726.402814615137	486
0	1495	728.046678656331	487
0	1501	729.54845178322	488
0	1502	730.712124863491	489
0	1505	731.972377404189	490
0	1506	733.240550508341	491
0	1507	734.727494684598	492
0	1508	736.259353775615	493
0	1510	738.221764050508	494
0	1512	739.696635752069	495
0	1513	740.847350895722	496
0	1515	742.00960270417	497
0	1517	743.862338862466	498
0	1518	744.957795483843	499
0	1523	746.587697352367	500
0	1527	748.064796831543	501
0	1535	749.666740527926	502
0	1538	751.163484945977	503
0	1539	752.933951340699	504
0	1543	754.070154605284	505
0	1547	755.638316852357	506
0	1549	756.929913530443	507
0	1553	758.338590924246	508
0	1555	759.475023295814	509
0	1559	761.167577921497	510
0	1565	762.516285987189	511
0	1566	763.860296164257	512
0	1568	765.808592919344	513
0	1576	767.049429270988	514
0	1580	769.016385222636	515
0	1581	770.535517139444	516
0	1583	772.183683007574	517
0	1585	773.851316806246	518
0	1588	774.932314992501	519
0	1590	776.009101236323	520
0	1594	777.418122741245	521
0	1598	779.129397710869	522
0	1600	780.853470237078	523
0	1603	781.853656950956	524
0	1607	783.343478324674	525
0	1608	785.191217662152	526
0	1612	786.752616382754	527
0	1613	787.901330520949	528
0	1615	789.814763127678	529
0	1620	791.063039690574	530
0	1624	792.905974550723	531
0	1627	794.518212562744	532
0	1631	796.148497990882	533
0	1634	798.064150826856	534
0	1641	799.913179460531	535
0	1645	801.563379793744	536
0	1646	803.329877669773	537
0	1650	804.905281673036	538
0	1654	806.436849390007	539
0	1657	808.120632315371	540
0	1659	809.354979412481	541
0	1665	810.621955310544	542
0	1669	811.775325655323	543
0	1670	813.105286543807	544
0	1672	815.003200090574	545
0	1673	816.359098172365	546
0	1674	818.321594342673	547
0	1675	820.118545936271	548
0	1678	821.472038653297	549
0	1679	822.923964239042	550
0	1680	824.886084008347	551
0	1687	826.17910684444	552
0	1689	828.138526432766	553
0	1697	829.982116790805	554
0	1698	831.69817450325	555
0	1706	832.874593268698	556
0	1714	834.561945063379	557
0	1718	835.83280743015	558
0	1719	837.654479365414	559
0	1723	839.202386063142	560
0	1725	840.901229492938	561
0	1730	842.320121920286	562
0	1733	844.301101322137	563
0	1738	845.779873959106	564
0	1739	847.20442691803	565
0	1740	848.490891556572	566
0	1742	849.992483030157	567
0	1746	851.279986400707	568
0	1748	852.851483841976	569
0	1750	854.011212848211	570
0	1755	855.095651172884	571
0	1757	856.35502498745	572
0	1758	858.285422421377	573
0	1759	859.410576358521	574
0	1763	861.147636802718	575
0	1765	863.122424064055	576
0	1766	864.889979291093	577
0	1770	866.652559666047	578
0	1774	868.64866010271	579
0	1776	869.878393694842	580
0	1779	871.17698354166	581
0	1780	872.693722255612	582
0	1781	874.470914987233	583
0	1783	875.594094631812	584
0	1784	877.160538129593	585
0	1785	878.804640675281	586
0	1789	880.084564060989	587
0	1790	881.895943468522	588
0	1792	883.711561055241	589
0	1794	885.307694078276	590
0	1801	886.496093597116	591
0	1802	887.519330222013	592
0	1804	889.050433994823	593
0	1807	890.410767994908	594
0	1809	892.006625940179	595
0	1810	893.254464592173	596
0	1817	894.447345296241	597
0	1822	895.910106524214	598
0	1824	897.268968103774	599
0	1827	899.119743752847	600
0	1830	901.100448592654	601
0	1838	902.748630870455	602
0	1840	904.624892811147	603
0	1843	906.386665973901	604
0	1846	907.532670316142	605
0	1850	909.249224644243	606
0	1852	911.215962388874	607
0	1856	912.243917765883	608
0	1860	913.260958482134	609
0	1867	914.4918744076	610
0	1872	915.837144252933	611
0	1878	917.573456946616	612
0	1883	919.243141842396	613
0	1884	920.526699556359	614
0	1885	921.812847163151	615
0	1889	923.126267683315	616
0	1892	924.324884431758	617
0	1893	925.941944116349	618
0	1900	927.414234501863	619
0	1910	928.900184877304	620
0	1916	930.657314657787	621
0	1920	931.661804699659	622
0	1921	933.067842000717	623
0	1925	934.522228294605	624
0	1931	936.510634635895	625
0	1935	938.044790655927	626
0	1936	939.301731847546	627
0	1938	940.988201609434	628
0	1946	942.877963749546	629
0	1950	944.8170942516	630
0	1953	946.782210574339	631
0	1955	948.627448570303	632
0	1957	950.53816031487	633
0	1958	951.986442463326	634
0	1959	953.000791612633	635
0	1964	954.612276930215	636
0	1970	956.203497214096	637
0	1971	957.832307672913	638
0	1979	958.931468325986	639
0	1985	960.190809833205	640
0	1989	961.660376560029	641
0	1991	963.274551562818	642
0	1995	964.441256225894	643
0	2003	966.2287227021	644
0	2004	967.739776602102	645
0	2006	969.138564204884	646
0	2007	970.341920833656	647
0	2011	971.911967711144	648
0	2013	973.235445790778	649
0	2016	974.670078308641	650
0	2023	975.746223470748	651
0	2026	977.336644941329	652
0	2027	978.409842242573	653
0	2031	979.563959409802	654
0	2046	981.561139019991	655
0	2048	982.671170019165	656
0	2056	983.8775430269	657
0	2057	985.014171995541	658
0	2058	986.382932843726	659
0	2060	988.344487151682	660
0	2061	989.495093686126	661
0	2063	991.0889237801	662
0	2065	992.991650168636	663
0	2067	994.230020935034	664
0	2068	995.483628315704	665
0	2070	997.080516114684	666
0	2071	998.361106093127	667
0	2072	999.747244477823	668
1	2	0.24879960581	1
1	9	7.174454215647	2
1	17	12.847378782092	3
1	21	14.654642523991	4
1	28	17.944910223781	5
1	37	19.050749624356	6
1	44	24.838764209673	7
1	54	27.972083369861	8
1	62	33.813220403104	9
1	70	35.546134707899	10
1	77	39.942054025917	11
1	83	41.571114303791	12
1	88	43.488156759115	13
1	98	48.089483491097	14
1	102	50.640346248484	15
1	108	53.376193530695	16
1	114	54.793467330556	17
1	117	56.82063202032	18
1	122	58.61090507798	19
1	128	61.626691268784	20
1	131	62.998316557183	21
1	137	64.315312775412	22
1	141	65.763255594649	23
1	145	67.540731009682	24
1	149	69.458443897568	25
1	153	70.596949578616	26
1	161	73.895220403732	27
1	166	76.773454110292	28
1	183	84.922970092432	29
1	189	87.694257566035	30
1	197	92.309575290618	31
1	201	93.848225339648	32
1	212	94.950176713966	33
1	221	98.314683539033	34
1	226	99.580073810282	35
1	229	100.839951414148	36
1	234	105.9707533574	37
1	240	110.689448247612	38
1	247	113.024720357013	39
1	255	115.804559522372	40
1	258	117.633569075769	41
1	270	124.792688565265	42
1	273	126.845797968475	43
1	283	132.721560238217	44
1	286	134.162466297926	45
1	290	136.026068984611	46
1	295	137.112344472619	47
1	299	140.060224994264	48
1	308	147.370023509289	49
1	314	150.546297723278	50
1	323	154.525332122578	51
1	327	156.318439375057	52
1	335	159.298381224389	53
1	342	165.509840901434	54
1	346	166.918497593272	55
1	354	170.073040040033	56
1	363	180.578847428193	57
1	368	183.997423832941	58
1	375	188.899494166081	59
1	384	191.407532999223	60
1	392	196.082732359133	61
1	396	197.261775178336	62
1	403	201.639513193974	63
1	407	202.791523961624	64
1	412	204.259553939155	65
1	418	205.882258117221	66
1	424	207.613631025759	67
1	429	209.559845937734	68
1	434	210.715491663997	69
1	441	214.253841972733	70
1	445	215.58852092556	71
1	455	220.202596004966	72
1	460	222.135637685452	73
1	473	229.525038230835	74
1	477	230.741039229135	75
1	480	231.839556612293	76
1	486	233.716352074846	77
1	492	236.355562382169	78
1	496	237.69382335585	79
1	499	238.996312292741	80
1	504	241.821003759207	81
1	514	243.451814539281	82
1	517	245.463432586107	83
1	521	246.976398646475	84
1	529	253.378677338563	85
1	532	254.570662651943	86
1	540	257.907583779832	87
1	545	259.040415387057	88
1	554	264.76412201677	89
1	559	266.445271375312	90
1	567	269.492500395484	91
1	571	271.478899627998	92
1	578	275.017467889283	93
1	589	282.450062752109	94
1	599	288.228181594633	95
1	609	290.937406675203	96
1	616	293.338947244679	97
1	621	294.767496168296	98
1	625	296.453166427893	99
1	629	297.448942365808	100
1	633	299.095520452828	101
1	638	300.561684232944	102
1	641	302.157091837107	103
1	647	303.564072608196	104
1	659	307.509406804273	105
1	664	309.272255948875	106
1	667	310.841459049522	107
1	673	312.336955987971	108
1	679	315.504515680792	109
1	683	317.092612901123	110
1	688	318.464899627336	111
1	692	319.888689874811	112
1	697	322.891808375628	113
1	702	325.424117786634	114
1	708	328.350280074136	115
1	712	329.781588497615	116
1	718	331.210101276739	117
1	721	332.392843533597	118
1	727	333.683530495278	119
1	731	336.741117492408	120
1	737	338.396413768776	121
1	742	341.011487535578	122
1	754	348.633236419833	123
1	762	350.551688405506	124
1	768	353.600575318206	125
1	773	356.97385034637	126
1	779	358.889575848313	127
1	786	363.393866741249	128
1	794	369.47856284906	129
1	800	372.612708989381	130
1	807	375.756397907933	131
1	819	382.424357375036	132
1	825	384.009471106077	133
1	831	386.670011083623	134
1	838	389.507047746317	135
1	843	393.10725921925	136
1	847	394.533507024174	137
1	858	403.255740629271	138
1	864	406.605473049177	139
1	870	409.749823120936	140
1	874	411.29210093021	141
1	880	414.245445555896	142
1	890	415.923253151626	143
1	898	418.958409713314	144
1	908	425.875987619384	145
1	916	429.159754402485	146
1	919	431.00198204636	147
1	928	436.938479401721	148
1	932	438.79182968766	149
1	936	439.916453789619	150
1	940	440.950087667136	151
1	945	442.178105209463	152
1	951	446.756709340528	153
1	958	450.066577021085	154
1	961	451.226698474014	155
1	969	454.493193668241	156
1	977	459.387082809914	157
1	991	468.052285141753	158
1	1003	478.806506861565	159
1	1007	480.713753179163	160
1	1015	484.981177764735	161
1	1019	486.831645817873	162
1	1030	491.924110332538	163
1	1034	493.191254947602	164
1	1040	495.812511861485	165
1	1047	497.824170131051	166
1	1050	499.164007984724	167
1	1067	512.323517841873	168
1	1071	513.874065561131	169
1	1079	519.264579419779	170
1	1087	521.905072837342	171
1	1093	528.672904732581	172
1	1097	530.141879629949	173
1	1102	533.694642166334	174
1	1108	535.113592502365	175
1	1123	544.596835477541	176
1	1126	545.789900331801	177
1	1134	552.231716145881	178
1	1144	554.084589022858	179
1	1154	559.190660157526	180
1	1159	560.4017882606	181
1	1162	561.933268638874	182
1	1168	564.900092662619	183
1	1172	567.207663734823	184
1	1179	571.549953385365	185
1	1183	572.514517729514	186
1	1196	582.952985195551	187
1	1203	585.010603041554	188
1	1206	586.589457376416	189
1	1213	592.782461569811	190
1	1219	594.025968989454	191
1	1223	595.812979726905	192
1	1230	597.439477584937	193
1	1239	598.563258661151	194
1	1244	599.724311154736	195
1	1248	603.139695193081	196
1	1265	613.663712582803	197
1	1270	616.398429569621	198
1	1274	617.80980297955	199
1	1284	623.260749027107	200
1	1288	624.746410235947	201
1	1293	626.926710281696	202
1	1297	628.854522714822	203
1	1310	641.733316767152	204
1	1321	647.130213432064	205
1	1329	649.952208758869	206
1	1334	651.229964557752	207
1	1338	653.049607721801	208
1	1355	655.058005289996	209
1	1359	656.186953587299	210
1	1367	663.302584096569	211
1	1372	664.253141220413	212
1	1378	665.704960879528	213
1	1383	666.766400961175	214
1	1395	673.132847121274	215
1	1400	674.517673842851	216
1	1417	686.456574432073	217
1	1420	687.964836873781	218
1	1424	689.68585886286	219
1	1429	693.119399823661	220
1	1439	700.474709180986	221
1	1445	701.566358516818	222
1	1451	703.869528467779	223
1	1457	707.823275941905	224
1	1467	712.478644852525	225
1	1472	713.752504430349	226
1	1479	718.404237141835	227
1	1483	720.331459156303	228
1	1489	721.555194467751	229
1	1496	728.134490401254	230
1	1503	730.813220571199	231
1	1519	745.049932107833	232
1	1524	746.753854304639	233
1	1528	748.239868767909	234
1	1536	749.734782763389	235
1	1540	753.055095192976	236
1	1544	754.094277948732	237
1	1550	757.094749944259	238
1	1556	759.565128708121	239
1	1560	761.321464204802	240
1	1569	765.877619750178	241
1	1577	767.096595239758	242
1	1586	774.00590525673	243
1	1591	776.161228632042	244
1	1595	777.57265697819	245
1	1601	781.028667014215	246
1	1604	782.003613076631	247
1	1609	785.282539480708	248
1	1616	789.868099549944	249
1	1621	791.202881524222	250
1	1625	792.993615930219	251
1	1628	794.675700950721	252
1	1632	796.227573930242	253
1	1635	798.106324920395	254
1	1642	799.972203551819	255
1	1647	803.414411364239	256
1	1651	804.967317262704	257
1	1655	806.557184955691	258
1	1660	809.460950894449	259
1	1666	810.822723365328	260
1	1676	820.312595608732	261
1	1681	825.053666444991	262
1	1690	828.341704091516	263
1	1699	831.826914735686	264
1	1707	832.930447287904	265
1	1715	834.674747350265	266
1	1720	837.711679281788	267
1	1726	841.083275267223	268
1	1731	842.479415975355	269
1	1734	844.411308327681	270
1	1743	850.057047511034	271
1	1751	854.207883986072	272
1	1760	859.478365678214	273
1	1767	864.96191573578	274
1	1771	866.816483458367	275
1	1777	869.920342916427	276
1	1786	878.897152146733	277
1	1795	885.402969768988	278
1	1805	889.21722878173	279
1	1811	893.443766431818	280
1	1818	894.613396792136	281
1	1825	897.307343242428	282
1	1828	899.269550203168	283
1	1831	901.257073226666	284
1	1841	904.723343168349	285
1	1844	906.573413464886	286
1	1847	907.73864165809	287
1	1853	911.28749352942	288
1	1857	912.35906362108	289
1	1861	913.451416197195	290
1	1868	914.649497293288	291
1	1873	916.038618199057	292
1	1879	917.618018282521	293
1	1886	922.012910788124	294
1	1890	923.188518642608	295
1	1894	926.087759010039	296
1	1901	927.468067020119	297
1	1911	929.090508880053	298
1	1917	930.691009886511	299
1	1922	933.129103741565	300
1	1926	934.573371175473	301
1	1932	936.702411815583	302
1	1939	941.063849365873	303
1	1947	943.034008293658	304
1	1951	944.892082239981	305
1	1960	953.121892550152	306
1	1965	954.699530625893	307
1	1972	957.866913541013	308
1	1980	959.055913273087	309
1	1986	960.33469227562	310
1	1992	963.36558127054	311
1	1996	964.471261475582	312
1	2008	970.364809843654	313
1	2014	973.295679505994	314
1	2017	974.753203398339	315
1	2024	975.90745280619	316
1	2028	978.497422498404	317
1	2032	979.670050455411	318
1	2049	982.729985573359	319
1	2073	999.902564057369	320
2	2	0.24879960581	1
2	9	7.174454215647	2
2	17	12.847378782092	3
2	21	14.654642523991	4
2	28	17.944910223781	5
2	37	19.050749624356	6
2	44	24.838764209673	7
2	54	27.972083369861	8
2	62	33.813220403104	9
2	70	35.546134707899	10
2	77	39.942054025917	11
2	83	41.571114303791	12
2	88	43.488156759115	13
2	98	48.089483491097	14
2	102	50.640346248484	15
2	108	53.376193530695	16
2	114	54.793467330556	17
2	117	56.82063202032	18
2	122	58.61090507798	19
2	128	61.626691268784	20
2	131	62.998316557183	21
2	137	64.315312775412	22
2	141	65.763255594649	23
2	145	67.540731009682	24
2	149	69.458443897568	25
2	153	70.596949578616	26
2	161	73.895220403732	27
2	166	76.773454110292	28
2	183	84.922970092432	29
2	189	87.694257566035	30
2	197	92.309575290618	31
2	201	93.848225339648	32
2	212	94.950176713966	33
2	221	98.314683539033	34
2	226	99.580073810282	35
2	229	100.839951414148	36
2	234	105.9707533574	37
2	240	110.689448247612	38
2	247	113.024720357013	39
2	255	115.804559522372	40
2	258	117.633569075769	41
2	270	124.792688565265	42
2	273	126.845797968475	43
2	283	132.721560238217	44
2	286	134.162466297926	45
2	290	136.026068984611	46
2	295	137.112344472619	47
2	299	140.060224994264	48
2	308	147.370023509289	49
2	314	150.546297723278	50
2	323	154.525332122578	51
2	327	156.318439375057	52
2	335	159.298381224389	53
2	342	165.509840901434	54
2	346	166.918497593272	55
2	354	170.073040040033	56
2	363	180.578847428193	57
2	368	183.997423832941	58
2	375	188.899494166081	59
2	384	191.407532999223	60
2	392	196.082732359133	61
2	396	197.261775178336	62
2	403	201.639513193974	63
2	407	202.791523961624	64
2	412	204.259553939155	65
2	418	205.882258117221	66
2	424	207.613631025759	67
2	429	209.559845937734	68
2	434	210.715491663997	69