version 3
run General-2-20231019-18:57:58-54425
attr configname General
attr datetime 20231019-18:57:58
attr datetimef 20231019-185758
attr experiment General
attr inifile omnetpp.ini
attr iterationvars ""
attr iterationvarsd ""
attr iterationvarsf ""
attr measurement ""
attr network Multihop
attr processid 54425
attr repetition 2
attr replication #2
attr resultdir results
attr runnumber 2
attr seedset 2
config network Multihop
config Multihop.node[*].transmissionTime "uniform(1s, 2s)"
config Multihop.node[*].delayTime "uniform(0.01s, 0.2s)"
config Multihop.node[0].lossProbability 0.3
config Multihop.node[1].lossProbability 0.3
config Multihop.node[2].lossProbability 0.3
config Multihop.node[3].lossProbability 0.3/2
config Multihop.node[4].lossProbability 0.3/2
config Multihop.node[5].lossProbability 0.3*2
config Multihop.node[6].lossProbability 0.3*2
config Multihop.node[7].lossProbability 0.3*3
config record-eventlog true
config sim-time-limit 1000s
config repeat 5

vector 0 Multihop.node[0] txVector ETV
vector 1 Multihop.node[2] rxVector ETV
vector 2 Multihop.node[2] txVector ETV
vector 3 Multihop.node[4] rxVector ETV
vector 4 Multihop.node[4] txVector ETV
vector 5 Multihop.node[6] rxVector ETV
vector 6 Multihop.node[6] txVector ETV
vector 7 Multihop.node[1] rxVector ETV
vector 8 Multihop.node[1] txVector ETV
vector 9 Multihop.node[3] rxVector ETV
vector 10 Multihop.node[3] txVector ETV
vector 11 Multihop.node[5] rxVector ETV
vector 12 Multihop.node[5] txVector ETV
vector 13 Multihop.node[7] rxVector ETV
vector 14 Multihop.node[7] e2eVector ETV
0	0	0	1
0	1	0.092839031499	2
0	2	1.277921112972	3
0	7	3.20946197656	4
0	8	4.69463789139	5
0	14	6.32737562202	6
0	15	8.173937113277	7
0	17	9.253582584226	8
0	19	10.541451404124	9
0	21	11.668611375868	10
0	22	12.890446543015	11
0	23	14.657937719507	12
0	36	16.235245789654	13
0	39	17.70308828123	14
0	42	19.651178704594	15
0	43	21.397810117594	16
0	44	22.829347887562	17
0	50	24.717651634031	18
0	54	26.074275914366	19
0	55	27.627909760243	20
0	59	29.201552258591	21
0	60	30.998957202091	22
0	62	32.268346003276	23
0	66	33.631671894594	24
0	68	35.182649799409	25
0	72	36.564342737916	26
0	79	37.98109617482	27
0	83	39.52444140778	28
0	89	41.41958714651	29
0	93	42.908853314138	30
0	94	44.761142274384	31
0	95	45.973909645361	32
0	97	46.974033229538	33
0	99	48.161319773664	34
0	100	49.946111696559	35
0	101	51.475932872408	36
0	107	52.749770741929	37
0	111	54.619916635119	38
0	112	56.432698586742	39
0	114	57.978571289937	40
0	118	59.009160767795	41
0	122	60.367401075569	42
0	126	61.987042536979	43
0	132	63.860169877085	44
0	136	65.63775778913	45
0	138	67.314897532128	46
0	142	68.729357585097	47
0	146	70.556810935512	48
0	150	71.945145113412	49
0	157	73.326807690803	50
0	161	74.670647586016	51
0	164	76.4629778024	52
0	168	78.296139045405	53
0	176	80.162319287211	54
0	177	81.804771712767	55
0	178	83.191672057863	56
0	179	85.046791725345	57
0	184	86.427584306356	58
0	185	87.67383789762	59
0	187	89.464081696021	60
0	192	90.639726382234	61
0	193	91.882063885239	62
0	197	93.088682636405	63
0	200	94.264281711328	64
0	202	95.917188660494	65
0	204	97.080527930307	66
0	211	98.59492998642	67
0	212	100.546440138035	68
0	214	102.398703064323	69
0	216	103.606744681271	70
0	222	104.77152330407	71
0	223	105.914518533759	72
0	225	107.045797756426	73
0	227	108.418690640498	74
0	229	109.993136982685	75
0	231	111.7221377867	76
0	233	113.55888131612	77
0	237	114.846516574985	78
0	239	116.806222570381	79
0	241	118.340324266135	80
0	244	119.430792246499	81
0	245	121.176331061191	82
0	246	122.541597095105	83
0	247	124.290562131695	84
0	249	125.797333970453	85
0	253	126.860235506223	86
0	258	128.199004142099	87
0	265	130.027559306026	88
0	271	131.029441963668	89
0	274	132.707863469861	90
0	278	133.740717403378	91
0	280	135.460934049237	92
0	282	136.836315481943	93
0	286	138.038214984602	94
0	288	139.365609167629	95
0	289	140.825299463953	96
0	291	142.687275922178	97
0	295	143.953901815247	98
0	296	145.62162336383	99
0	297	146.752487835493	100
0	303	147.9664288799	101
0	306	149.267181946216	102
0	308	150.800022838423	103
0	309	152.79933975406	104
0	311	154.508245299123	105
0	312	155.826143795643	106
0	313	157.398152613798	107
0	316	158.77057313269	108
0	320	160.372336856341	109
0	326	162.012984517748	110
0	327	163.656312978613	111
0	328	165.199631621382	112
0	334	167.16102181214	113
0	335	169.019139148547	114
0	343	170.198831906561	115
0	350	171.633924332699	116
0	351	172.788859854005	117
0	357	173.85457053014	118
0	358	175.233283677855	119
0	360	177.162632854441	120
0	361	178.609100963706	121
0	362	180.371531524248	122
0	365	182.008094937559	123
0	369	183.601835307451	124
0	375	184.626873913473	125
0	377	185.893463750389	126
0	383	187.816526480038	127
0	387	189.660618569022	128
0	388	191.378982709972	129
0	390	193.338695222297	130
0	392	194.784980192798	131
0	397	196.064307446376	132
0	399	197.891104926838	133
0	400	199.820842014876	134
0	401	201.284151791147	135
0	403	202.38690106945	136
0	405	203.607794037106	137
0	407	205.561485581117	138
0	411	206.682326330588	139
0	412	207.880421964469	140
0	414	209.23052734604	141
0	420	210.465964067978	142
0	423	211.772287291958	143
0	430	213.049940360262	144
0	431	214.37232215518	145
0	434	216.370601684105	146
0	436	218.018442336254	147
0	442	219.781642559001	148
0	445	221.243980164191	149
0	451	223.235905402823	150
0	455	224.438796662277	151
0	461	226.3346505135	152
0	466	228.079526769945	153
0	467	230.001956089183	154
0	471	231.828061564376	155
0	473	233.271718549558	156
0	475	234.381650748213	157
0	476	235.495284677732	158
0	480	237.136461987176	159
0	481	239.089117716315	160
0	485	240.734716678985	161
0	487	242.324096323472	162
0	492	243.553444380655	163
0	494	244.601374069943	164
0	495	245.706763939482	165
0	499	247.562306917521	166
0	504	249.240465938362	167
0	512	250.271912747544	168
0	521	251.702650703738	169
0	523	253.306997639375	170
0	524	254.30746611023	171
0	525	255.717450439247	172
0	535	257.606881036672	173
0	536	259.545312061223	174
0	537	261.502461584766	175
0	538	262.662673984204	176
0	541	264.474928069409	177
0	547	266.074507278172	178
0	551	267.509562588311	179
0	552	268.725130829741	180
0	554	270.051021681414	181
0	558	272.044298254899	182
0	562	273.845900031287	183
0	565	275.564989300692	184
0	569	276.809489934254	185
0	570	278.757114907508	186
0	571	279.844621351003	187
0	574	280.920121061164	188
0	583	282.902385728448	189
0	588	284.613936537193	190
0	589	285.733817189015	191
0	593	286.992349633961	192
0	594	288.581741587273	193
0	595	290.422086382532	194
0	599	291.651329322034	195
0	604	293.066072406029	196
0	605	294.485841366943	197
0	606	295.583232270801	198
0	610	296.805393748465	199
0	611	298.800161923296	200
0	614	300.380929890801	201
0	616	302.240659859511	202
0	622	303.26019860107	203
0	627	304.882618956515	204
0	628	306.337658846067	205
0	632	308.31587862318	206
0	634	309.326390809627	207
0	639	310.912167033894	208
0	640	312.562711346677	209
0	644	313.885437491365	210
0	648	315.446569185719	211
0	650	317.282258992564	212
0	656	318.525441465681	213
0	659	319.852091537105	214
0	660	321.838867418017	215
0	665	323.324803302312	216
0	666	324.85697934452	217
0	667	326.112072858741	218
0	669	327.88724810096	219
0	670	329.438130965471	220
0	671	330.451132924776	221
0	673	331.751696358449	222
0	677	333.463449829738	223
0	679	335.459106867216	224
0	683	337.117025395404	225
0	687	339.074607073344	226
0	688	340.925884342301	227
0	692	342.684864241877	228
0	693	343.856669239249	229
0	695	345.336273473469	230
0	699	346.5589804263	231
0	703	347.898415971795	232
0	708	349.36505291822	233
0	709	351.212227172233	234
0	713	352.748391071582	235
0	718	354.36017540867	236
0	722	355.614801913747	237
0	730	357.193274383913	238
0	734	358.689825263587	239
0	735	360.20560616978	240
0	741	361.542105618413	241
0	745	363.474156217198	242
0	751	365.346396441585	243
0	752	366.979971594889	244
0	753	368.561409126515	245
0	759	369.710000422797	246
0	760	370.992636219146	247
0	764	372.970750474151	248
0	765	374.654225371558	249
0	769	376.176728594363	250
0	770	377.748133145286	251
0	776	379.09477798805	252
0	778	380.926948907565	253
0	779	382.859007200472	254
0	787	383.972322520347	255
0	790	385.854231219519	256
0	791	387.569770794375	257
0	795	389.539634791449	258
0	797	390.731899069868	259
0	805	392.208477588616	260
0	809	393.458166211158	261
0	810	394.801335414885	262
0	811	396.095839097876	263
0	814	398.032119958907	264
0	815	399.576252294018	265
0	819	400.838809174265	266
0	820	402.298224031938	267
0	824	404.028856971081	268
0	828	405.732151128597	269
0	831	407.117902836542	270
0	832	408.236282045733	271
0	833	410.114835548693	272
0	836	411.225857976371	273
0	840	413.063693053102	274
0	842	414.315257003544	275
0	844	416.100182366571	276
0	846	417.156593520441	277
0	850	418.745907104588	278
0	851	420.58233879345	279
0	856	422.199522501337	280
0	858	423.7658087304	281
0	865	424.951742200893	282
0	866	426.864598784144	283
0	868	428.510426732958	284
0	869	429.532045193729	285
0	876	430.685861576363	286
0	878	431.764373107362	287
0	885	433.52774588835	288
0	886	435.372348353747	289
0	887	436.589371586699	290
0	892	437.723791855868	291
0	900	439.513404281592	292
0	907	440.828122360647	293
0	911	442.79036485871	294
0	912	444.612991476913	295
0	920	446.309885413635	296
0	925	447.713464430084	297
0	934	449.350635600991	298
0	935	451.096916129829	299
0	936	452.275872151849	300
0	937	454.032875882478	301
0	938	455.092655817529	302
0	939	456.968680503795	303
0	944	458.155585377028	304
0	945	459.251876852492	305
0	947	460.887885952152	306
0	951	462.279973378654	307
0	952	464.264966425502	308
0	956	466.25951775491	309
0	958	467.389727827643	310
0	964	469.14460194159	311
0	966	471.0880360366	312
0	967	472.796075257721	313
0	971	473.879443250146	314
0	973	475.139690764729	315
0	977	476.728240544457	316
0	981	478.574590299992	317
0	983	480.126185148969	318
0	984	481.387219110518	319
0	986	482.788606068366	320
0	987	484.748116967981	321
0	988	486.508962318781	322
0	990	488.06379705017	323
0	991	489.651762219626	324
0	993	490.735839587884	325
0	995	492.159091274502	326
0	998	493.778069893379	327
0	999	494.780772869956	328
0	1004	496.7079335116	329
0	1008	498.104825827774	330
0	1009	499.686301016962	331
0	1010	501.252955472344	332
0	1011	503.175845537815	333
0	1013	504.499608888771	334
0	1014	505.703176545227	335
0	1015	507.043318899596	336
0	1021	508.270434515333	337
0	1027	509.744303685628	338
0	1028	511.385442342624	339
0	1029	512.897525338937	340
0	1030	514.56783911727	341
0	1034	516.382400592804	342
0	1037	517.705040146146	343
0	1043	519.677791166367	344
0	1046	521.240050867448	345
0	1048	522.929529209404	346
0	1050	524.425667404213	347
0	1055	525.619386738415	348
0	1056	527.050578833806	349
0	1058	528.544346642696	350
0	1061	530.126173927231	351
0	1062	531.165914729951	352
0	1064	532.363928220483	353
0	1068	534.284581403962	354
0	1070	535.351427317147	355
0	1071	537.125177279363	356
0	1078	538.881322790651	357
0	1079	540.188751873576	358
0	1080	541.706367024702	359
0	1084	543.181101364798	360
0	1090	545.071962926553	361
0	1091	546.267226971935	362
0	1093	547.289074660295	363
0	1097	549.178520020812	364
0	1105	551.056776250263	365
0	1109	552.44375907189	366
0	1110	554.095035895023	367
0	1117	555.529048871964	368
0	1124	556.930924638657	369
0	1127	558.076813840557	370
0	1133	559.709923722798	371
0	1134	561.492414884519	372
0	1135	562.700964748876	373
0	1140	563.899627070425	374
0	1144	565.256402091373	375
0	1145	567.090657099633	376
0	1147	568.902297747804	377
0	1149	570.651636437996	378
0	1153	572.48478447927	379
0	1157	574.096444120415	380
0	1161	575.140582321927	381
0	1162	576.653562236827	382
0	1165	577.999549349321	383
0	1170	579.884772666048	384
0	1172	581.474003912898	385
0	1174	583.38237787715	386
0	1175	585.194908788678	387
0	1179	586.984947445354	388
0	1182	588.623145319772	389
0	1186	590.129514484218	390
0	1189	591.707030062814	391
0	1190	592.837244511367	392
0	1198	594.294951506908	393
0	1199	596.131182405184	394
0	1200	597.830087908794	395
0	1207	599.473593009188	396
0	1211	600.493429572106	397
0	1217	601.727400738298	398
0	1219	603.64056403634	399
0	1225	605.429404112528	400
0	1229	607.302194788138	401
0	1234	609.017486030719	402
0	1239	610.399105682987	403
0	1243	612.349775261729	404
0	1246	613.511577397137	405
0	1248	614.964028955688	406
0	1250	616.814101572399	407
0	1254	618.219063716493	408
0	1255	619.877968088276	409
0	1261	620.984880540305	410
0	1263	622.180700172222	411
0	1267	623.714042402821	412
0	1270	624.844063899497	413
0	1273	626.331981640093	414
0	1274	627.394832767097	415
0	1279	628.708597427949	416
0	1283	630.369835096195	417
0	1284	632.26385105077	418
0	1287	633.355584573483	419
0	1297	634.453495053591	420
0	1303	636.090472642582	421
0	1307	638.026587573363	422
0	1313	639.661577307869	423
0	1319	641.261840880633	424
0	1320	642.902281721373	425
0	1322	644.46261871375	426
0	1329	645.765514308837	427
0	1333	647.552588092646	428
0	1335	648.753161886491	429
0	1338	650.714100803265	430
0	1340	652.55313874969	431
0	1341	654.401555516307	432
0	1345	655.776748684251	433
0	1347	657.603892965491	434
0	1352	659.274560287378	435
0	1360	660.667226153675	436
0	1366	661.90941256589	437
0	1368	663.890321483386	438
0	1373	665.001208124	439
0	1375	666.39945759556	440
0	1376	667.612007568141	441
0	1378	669.073323973238	442
0	1383	670.705536641895	443
0	1387	672.178579954446	444
0	1393	673.751197823572	445
0	1395	675.15374868062	446
0	1396	676.316751337393	447
0	1404	677.884600062172	448
0	1406	679.122297350799	449
0	1410	680.403740433759	450
0	1411	681.688654609273	451
0	1413	682.912391495674	452
0	1414	684.050680981732	453
0	1416	686.016390172315	454
0	1420	687.21658991791	455
0	1421	688.98520696351	456
0	1422	690.536853127896	457
0	1427	691.967804437985	458
0	1428	693.491932455699	459
0	1430	695.042251293563	460
0	1431	696.831923512059	461
0	1433	698.161093310934	462
0	1437	700.004221849392	463
0	1439	701.0121502306	464
0	1440	702.548349387028	465
0	1441	703.97978041276	466
0	1446	705.155550175595	467
0	1447	706.705457004501	468
0	1451	708.403151768974	469
0	1452	709.493435133497	470
0	1457	711.379490809298	471
0	1458	712.910166902018	472
0	1460	714.838545086111	473
0	1461	715.991263899735	474
0	1463	717.439657337514	475
0	1465	719.073414059139	476
0	1466	720.864392717851	477
0	1468	722.76082277579	478
0	1469	724.147887310262	479
0	1471	725.592378692019	480
0	1473	726.830901384835	481
0	1475	728.038830721301	482
0	1476	729.388353814154	483
0	1482	730.714993700401	484
0	1483	732.361415774345	485
0	1484	733.77233472049	486
0	1490	735.571811230171	487
0	1491	737.206732887325	488
0	1497	739.068861843103	489
0	1501	740.335358741011	490
0	1504	741.694360152835	491
0	1505	742.859336995304	492
0	1509	744.83054928949	493
0	1513	746.294047605962	494
0	1515	747.560698512027	495
0	1516	748.641720010217	496
0	1522	750.131301593518	497
0	1523	751.628557707666	498
0	1527	753.411544443824	499
0	1529	755.355015715602	500
0	1533	756.674741999031	501
0	1537	757.840901226521	502
0	1540	759.066645912145	503
0	1543	760.154576642456	504
0	1547	761.628419889853	505
0	1551	763.045901201916	506
0	1553	764.395962707483	507
0	1554	765.599991568615	508
0	1557	766.665502802952	509
0	1560	767.746539728966	510
0	1562	768.790288536827	511
0	1566	769.954245071177	512
0	1570	771.006216218712	513
0	1572	772.510892068519	514
0	1574	774.211280728009	515
0	1576	776.154862823448	516
0	1580	777.460922304558	517
0	1582	779.003064065956	518
0	1583	780.499331950693	519
0	1586	781.560923462751	520
0	1592	783.409697819751	521
0	1597	784.703312635904	522
0	1598	785.769749418616	523
0	1602	787.463442579394	524
0	1606	788.668624367814	525
0	1607	790.423896381881	526
0	1609	791.460922621906	527
0	1614	792.483215383737	528
0	1615	793.567724563664	529
0	1620	795.549545227567	530
0	1621	797.329586828377	531
0	1622	799.11415877288	532
0	1626	800.144064331211	533
0	1627	801.313282929377	534
0	1634	802.389390602026	535
0	1636	803.932150982104	536
0	1641	805.38620307368	537
0	1645	806.424903088266	538
0	1653	808.382359918689	539
0	1655	809.607798756815	540
0	1656	811.381063924187	541
0	1664	813.219379021802	542
0	1666	815.178534039778	543
0	1667	816.286274676926	544
0	1668	817.97349307711	545
0	1676	819.034712972601	546
0	1677	820.561866083664	547
0	1684	821.691059065999	548
0	1685	823.664869566697	549
0	1689	824.997336398361	550
0	1690	826.079542193345	551
0	1694	827.898175218624	552
0	1696	829.493375254811	553
0	1698	831.490794889412	554
0	1704	833.408086037046	555
0	1706	834.799730825952	556
0	1709	836.544732428404	557
0	1710	838.222912265702	558
0	1717	839.279883343975	559
0	1723	840.769053874786	560
0	1727	841.868639976501	561
0	1728	843.428689411159	562
0	1733	844.879485531261	563
0	1734	846.121660349442	564
0	1735	847.509978775185	565
0	1739	848.736108302854	566
0	1741	850.051363752939	567
0	1742	851.941656909201	568
0	1744	853.180829008825	569
0	1745	854.724776631005	570
0	1749	855.755389359563	571
0	1750	857.141087516926	572
0	1751	858.537986639671	573
0	1755	859.610631126694	574
0	1757	860.629549623949	575
0	1759	862.011406636348	576
0	1760	863.736317569174	577
0	1765	865.620864881918	578
0	1766	866.951232701324	579
0	1769	868.872079760784	580
0	1772	870.13783458459	581
0	1776	872.045070652867	582
0	1784	873.475516455265	583
0	1790	874.81756182948	584
0	1795	876.678348647215	585
0	1799	878.009071802272	586
0	1804	879.938097026449	587
0	1810	881.55285271352	588
0	1820	882.949582499935	589
0	1824	884.800421583018	590
0	1827	885.827960037178	591
0	1832	886.968263494334	592
0	1839	888.754349787737	593
0	1840	890.409237356408	594
0	1842	892.146484483283	595
0	1846	893.251467713404	596
0	1854	895.158369944214	597
0	1857	896.486857378638	598
0	1859	897.911059610095	599
0	1860	899.445212224048	600
0	1861	900.718344428592	601
0	1865	902.295139161653	602
0	1867	903.853268347697	603
0	1873	904.985602516697	604
0	1874	906.331816635576	605
0	1875	907.882891376984	606
0	1877	909.809301114424	607
0	1880	910.95559955972	608
0	1882	912.05067232765	609
0	1883	913.377633072685	610
0	1892	914.999028983309	611
0	1893	916.817886806808	612
0	1894	917.962802289303	613
0	1903	918.977060134073	614
0	1912	920.073587945911	615
0	1915	921.831533771024	616
0	1917	922.84002987297	617
0	1920	924.558383925834	618
0	1922	925.709486370922	619
0	1931	927.383111309742	620
0	1935	928.685379753837	621
0	1936	929.832507880654	622
0	1937	931.583722557423	623
0	1939	933.045481420138	624
0	1941	934.210211874467	625
0	1946	935.879357651124	626
0	1948	937.764136411963	627
0	1949	938.976392694997	628
0	1954	940.439873211101	629
0	1962	942.07237473318	630
0	1964	943.424050883871	631
0	1970	945.389582096614	632
0	1972	947.150612491896	633
0	1976	948.361459620311	634
0	1980	949.858570678174	635
0	1984	951.295177548673	636
0	1989	952.411419284545	637
0	1990	953.878384646276	638
0	1991	955.355025110781	639
0	1994	957.231794727515	640
0	1996	958.675428032191	641
0	2002	960.117056037547	642
0	2006	961.835168821752	643
0	2009	963.29719884439	644
0	2013	965.088610359017	645
0	2016	966.350679322394	646
0	2018	967.775494920571	647
0	2019	969.220521570432	648
0	2020	970.867665830783	649
0	2021	972.316155210852	650
0	2022	973.768959784664	651
0	2023	975.450201811053	652
0	2025	977.13646301396	653
0	2030	978.804679838492	654
0	2034	980.184536760457	655
0	2037	981.359669883985	656
0	2038	982.980608448636	657
0	2045	984.475414714793	658
0	2047	986.332879786164	659
0	2051	987.712590739614	660
0	2057	989.623814242444	661
0	2059	991.289229913632	662
0	2063	992.815310824913	663
0	2064	994.415731959528	664
0	2070	995.422012681159	665
0	2071	996.567778842541	666
0	2077	998.423854141513	667
1	3	1.38063236768	1
1	9	4.815174888557	2
1	24	14.766817341677	3
1	37	16.436456811909	4
1	40	17.884749876616	5
1	45	23.033758147365	6
1	51	24.914851060585	7
1	56	27.805992971233	8
1	63	32.361975454477	9
1	69	35.210591363712	10
1	73	36.696917046927	11
1	80	38.042099390322	12
1	84	39.624191145195	13
1	90	41.515065405041	14
1	102	51.60033726798	15
1	108	52.906636866497	16
1	115	58.072782569142	17
1	119	59.156161907184	18
1	123	60.498964173832	19
1	127	62.091511646895	20
1	133	63.882222052408	21
1	139	67.390708841591	22
1	143	68.7687637956	23
1	147	70.697450202356	24
1	151	72.006721062152	25
1	158	73.371772666224	26
1	162	74.744010984213	27
1	165	76.626808683924	28
1	169	78.358106477019	29
1	180	85.25002713613	30
1	188	89.571812087605	31
1	194	92.024008120462	32
1	198	93.18585653845	33
1	205	97.119656305211	34
1	217	103.681360691013	35
1	234	113.622684982543	36
1	242	118.466127698409	37
1	250	125.963602466536	38
1	254	126.959022475385	39
1	259	128.341464117382	40
1	266	130.228874146797	41
1	272	131.140779375852	42
1	275	132.875098806288	43
1	283	136.991821953858	44
1	292	142.856566683595	45
1	298	146.776051883295	46
1	304	148.158072916041	47
1	314	157.430901337773	48
1	317	158.828885310765	49
1	321	160.556003007335	50
1	329	165.384087696113	51
1	336	169.129577010007	52
1	344	170.319049025565	53
1	352	172.880045284303	54
1	363	180.474851282145	55
1	366	182.075743870293	56
1	370	183.707264058006	57
1	378	186.089026636752	58
1	384	187.939310418477	59
1	393	194.928056393248	60
1	408	205.714523152821	61
1	415	209.269810095328	62
1	421	210.540111525703	63
1	424	211.822467799484	64
1	432	214.496665620495	65
1	437	218.054217750584	66
1	443	219.913885674742	67
1	446	221.447712442429	68
1	452	223.31939256932	69
1	456	224.620170749243	70
1	462	226.464612576981	71
1	468	230.048445336281	72
1	477	235.607172199711	73
1	482	239.260873114655	74
1	488	242.47231736788	75
1	496	245.80612549819	76
1	500	247.666822122053	77
1	505	249.314817772437	78
1	515	250.4339124145	79
1	526	255.768289262635	80
1	539	262.720494334841	81
1	542	264.504571918208	82
1	548	266.21505048754	83
1	555	270.15470000898	84
1	559	272.197863935957	85
1	563	274.046998210732	86
1	566	275.680269700713	87
1	572	279.949213638746	88
1	575	281.001887380709	89
1	584	283.056468814058	90
1	590	285.851733795584	91
1	596	290.484667363367	92
1	600	291.754968105897	93
1	607	295.653554163971	94
1	612	298.989625882616	95
1	617	302.307788722364	96
1	623	303.427547634451	97
1	629	306.396119490299	98
1	635	309.362781432407	99
1	641	312.64389660424	100
1	645	313.96211412904	101
1	651	317.314529716562	102
1	657	318.665784545839	103
1	661	321.878355725955	104
1	674	331.858438941669	105
1	680	335.537295166753	106
1	684	337.14215841844	107
1	689	341.080387125048	108
1	696	345.456231308137	109
1	700	346.728091681826	110
1	704	347.979192399507	111
1	710	351.387372786648	112
1	714	352.883380795727	113
1	719	354.432731276565	114
1	723	355.816302286927	115
1	731	357.299093753377	116
1	736	360.236233523532	117
1	742	361.601197688857	118
1	746	363.656264181191	119
1	754	368.646114911728	120
1	761	371.046523532138	121
1	766	374.806654447416	122
1	771	377.812803579463	123
1	780	383.016613525067	124
1	788	384.085068224802	125
1	792	387.595500228812	126
1	798	390.788613083178	127
1	806	392.315926694096	128
1	812	396.288251774717	129
1	816	399.663165783324	130
1	821	402.341268241283	131
1	825	404.10857620106	132
1	829	405.939440215736	133
1	834	410.315129967517	134
1	837	411.423146464278	135
1	847	417.241793072964	136
1	852	420.629357298845	137
1	859	423.974848997879	138
1	870	429.691790159922	139
1	879	431.883764742895	140
1	888	436.711500996874	141
1	893	437.810616589681	142
1	901	439.667317586731	143
1	908	440.871879421623	144
1	913	444.652032817397	145
1	921	446.500298321932	146
1	926	447.875345242973	147
1	940	457.100628138665	148
1	948	461.033966640879	149
1	953	464.329549696969	150
1	959	467.414130038272	151
1	968	472.956174379621	152
1	974	475.220532193949	153
1	978	476.934011390198	154
1	996	492.295643267826	155
1	1000	494.968567446925	156
1	1005	496.845144507136	157
1	1016	507.173234904603	158
1	1022	508.386575927547	159
1	1031	514.720924081484	160
1	1035	516.517495935192	161
1	1038	517.869061735197	162
1	1044	519.782969424632	163
1	1051	524.614687966823	164
1	1059	528.6924205487	165
1	1065	532.466856382789	166
1	1072	537.281278422539	167
1	1081	541.727227368506	168
1	1085	543.370485664408	169
1	1094	547.347174549908	170
1	1098	549.267301845438	171
1	1106	551.205581411097	172
1	1111	554.165392778011	173
1	1118	555.699050791101	174
1	1125	556.977471838142	175
1	1128	558.198975346776	176
1	1136	562.773624667579	177
1	1141	564.045088533245	178
1	1150	570.787559182582	179
1	1154	572.652090122603	180
1	1158	574.24074967004	181
1	1163	576.722192830018	182
1	1166	578.062037510004	183
1	1176	585.331870713463	184
1	1180	587.021159742995	185
1	1183	588.695818524155	186
1	1187	590.293645691938	187
1	1191	592.899398194122	188
1	1201	597.857130829912	189
1	1208	599.673419775129	190
1	1212	600.516989741578	191
1	1220	603.68714517725	192
1	1226	605.473907768905	193
1	1230	607.366422005388	194
1	1235	609.20807756568	195
1	1240	610.502240616546	196
1	1244	612.435214534853	197
1	1251	616.903734140027	198
1	1256	620.031194576273	199
1	1264	622.337512887627	200
1	1268	623.82005949447	201
1	1271	624.955305706315	202
1	1275	627.465578942744	203
1	1280	628.795463944252	204
1	1285	632.383572085817	205
1	1288	633.399131901528	206
1	1298	634.518272836772	207
1	1304	636.202050333382	208
1	1308	638.082537208906	209
1	1314	639.827536864917	210
1	1323	644.486488324312	211
1	1330	645.962434315459	212
1	1336	648.844842123555	213
1	1342	654.576114712557	214
1	1348	657.713160760484	215
1	1353	659.381466297544	216
1	1361	660.770269378468	217
1	1369	663.916862679915	218
1	1379	669.263920687253	219
1	1384	670.748508385264	220
1	1388	672.20592312514	221
1	1397	676.404383865122	222
1	1407	679.235176693867	223
1	1417	686.144812180286	224
1	1423	690.584142407737	225
1	1434	698.303602989844	226
1	1442	704.051572209058	227
1	1448	706.732850202864	228
1	1453	709.583049993566	229
1	1477	729.458976972778	230
1	1485	733.955061104908	231
1	1492	737.396886863242	232
1	1498	739.231717151515	233
1	1502	740.396688713126	234
1	1506	743.03327737874	235
1	1510	744.914595831881	236
1	1517	748.779170562541	237
1	1524	751.711707091405	238
1	1530	755.544727956691	239
1	1534	756.860462579398	240
1	1538	758.044465911715	241
1	1541	759.269447412844	242
1	1544	760.35390844724	243
1	1548	761.721477010379	244
1	1555	765.642966412347	245
1	1558	766.772451439666	246
1	1563	768.881445427226	247
1	1567	770.150245013068	248
1	1577	776.213437032231	249
1	1584	780.627998083493	250
1	1587	781.717999820801	251
1	1593	783.598446966378	252
1	1599	785.927992373251	253
1	1603	787.61429318897	254
1	1610	791.546556889732	255
1	1616	793.707802006538	256
1	1623	799.263478445157	257
1	1628	801.467601941	258
1	1637	804.050546727509	259
1	1642	805.461430713872	260
1	1646	806.493507316732	261
1	1657	811.473630699552	262
1	1669	817.999086142178	263
1	1678	820.620770277271	264
1	1686	823.750330064951	265
1	1691	826.111484113536	266
1	1699	831.674144984479	267
1	1707	834.920149295041	268
1	1711	838.404162493047	269
1	1718	839.323397481311	270
1	1724	840.934055032862	271
1	1729	843.603678382984	272
1	1736	847.660637266269	273
1	1746	854.779038095863	274
1	1752	858.615466621954	275
1	1761	863.888690562444	276
1	1767	867.067523064674	277
1	1770	868.940130703356	278
1	1773	870.211406025126	279
1	1777	872.245726546059	280
1	1785	873.555354629379	281
1	1791	874.954214338568	282
1	1796	876.855972412986	283
1	1800	878.07596414283	284
1	1805	880.074789364308	285
1	1811	881.712156974211	286
1	1821	883.111907124486	287
1	1825	885.001374278554	288
1	1828	885.958655996531	289
1	1833	887.040594382467	290
1	1843	892.232200614615	291
1	1847	893.401922834769	292
1	1855	895.269687042611	293
1	1862	900.75471928948	294
1	1868	903.914609196698	295
1	1878	909.884739954429	296
1	1884	913.572341558065	297
1	1895	917.992078150201	298
1	1905	919.168980807941	299
1	1918	922.934151976732	300
1	1923	925.814180571769	301
1	1932	927.459937211492	302
1	1942	934.385581769908	303
1	1950	939.079046235228	304
1	1955	940.589593690656	305
1	1965	943.505010380078	306
1	1973	947.236869774245	307
1	1977	948.386532607933	308
1	1981	950.020504238916	309
1	1985	951.473586412278	310
1	1992	955.516645381477	311
1	1997	958.835650308473	312
1	2003	960.304062815964	313
1	2007	962.035709754337	314
1	2010	963.41624537377	315
1	2014	965.275810369126	316
1	2026	977.26175081491	317
1	2031	978.846714785058	318
1	2035	980.319403494786	319
1	2039	983.033956033122	320
1	2048	986.362716760529	321
1	2052	987.762911275729	322
1	2060	991.484946536204	323
1	2065	994.526730360513	324
1	2072	996.597472635089	325
2	3	1.38063236768	1
2	9	4.815174888557	2
2	24	14.766817341677	3
2	37	16.436456811909	4
2	40	17.884749876616	5
2	45	23.033758147365	6
2	51	24.914851060585	7
2	56	27.805992971233	8
2	63	32.361975454477	9
2	69	35.210591363712	10
2	73	36.696917046927	11
2	80	38.042099390322	12
2	84	39.624191145195	13
2	90	41.515065405041	14
2	102	51.60033726798	15
2	108	52.906636866497	16
2	115	58.072782569142	17
2	119	59.156161907184	18
2	123	60.498964173832	19
2	127	62.091511646895	20
2	133	63.882222052408	21
2	139	67.390708841591	22
2	143	68.7687637956	23
2	147	70.697450202356	24
2	151	72.006721062152	25
2	158	73.371772666224	26
2	162	74.744010984213	27
2	165	76.626808683924	28
2	169	78.358106477019	29
2	180	85.25002713613	30
2	188	89.571812087605	31
2	194	92.024008120462	32
2	198	93.18585653845	33
2	205	97.119656305211	34
2	217	103.681360691013	35
2	234	113.622684982543	36
2	242	118.466127698409	37
2	250	125.963602466536	38
2	254	126.959022475385	39
2	259	128.341464117382	40
2	266	130.228874146797	41
2	272	131.140779375852	42
2	275	132.875098806288	43
2	283	136.991821953858	44
2	292	142.856566683595	45
2	298	146.776051883295	46
2	304	148.158072916041	47
2	314	157.430901337773	48
2	317	158.828885310765	49
2	321	160.556003007335	50
2	329	165.384087696113	51
2	336	169.129577010007	52
2	344	170.319049025565	53
2	352	172.880045284303	54
2	363	180.474851282145	55
2	366	182.075743870293	56
2	370	183.707264058006	57
2	378	186.089026636752	58
2	384	187.939310418477	59
2	393	194.928056393248	60
2	408	205.714523152821	61
2	415	209.269810095328	62
2	421	210.540111525703	63
2	424	211.822467799484	64
2	432	214.496665620495	65