version 3
run General-3-20231019-18:57:58-54425
attr configname General
attr datetime 20231019-18:57:58
attr datetimef 20231019-185758
attr experiment General
attr inifile omnetpp.ini
attr iterationvars ""
attr iterationvarsd ""
attr iterationvarsf ""
attr measurement ""
attr network Multihop
attr processid 54425
attr repetition 3
attr replication #3
attr resultdir results
attr runnumber 3
attr seedset 3
config network Multihop
config Multihop.node[*].transmissionTime "uniform(1s, 2s)"
config Multihop.node[*].delayTime "uniform(0.01s, 0.2s)"
config Multihop.node[0].lossProbability 0.3
config Multihop.node[1].lossProbability 0.3
config Multihop.node[2].lossProbability 0.3
config Multihop.node[3].lossProbability 0.3/2
config Multihop.node[4].lossProbability 0.3/2
config Multihop.node[5].lossProbability 0.3*2
config Multihop.node[6].lossProbability 0.3*2
config Multihop.node[7].lossProbability 0.3*3
config record-eventlog true
config sim-time-limit 1000s
config repeat 5

vector 0 Multihop.node[0] txVector ETV
vector 1 Multihop.node[2] rxVector ETV
vector 2 Multihop.node[2] txVector ETV
vector 3 Multihop.node[4] rxVector ETV
vector 4 Multihop.node[4] txVector ETV
vector 5 Multihop.node[6] rxVector ETV
vector 6 Multihop.node[6] txVector ETV
vector 7 Multihop.node[1] rxVector ETV
vector 8 Multihop.node[1] txVector ETV
vector 9 Multihop.node[3] rxVector ETV
vector 10 Multihop.node[3] txVector ETV
vector 11 Multihop.node[5] rxVector ETV
vector 12 Multihop.node[5] txVector ETV
vector 13 Multihop.node[7] rxVector ETV
vector 14 Multihop.node[7] e2eVector ETV
0	0	0	1
0	1	0.114651601831	2
0	3	1.185376482154	3
0	6	2.69620408311	4
0	7	3.90344696173	5
0	8	4.954914169689	6
0	16	6.395724008163	7
0	18	7.702084635222	8
0	23	8.858952375898	9
0	24	10.834947803827	10
0	30	12.507331482438	11
0	42	13.823098730832	12
0	46	15.569844953321	13
0	49	17.109964554735	14
0	50	18.412228168292	15
0	52	20.219250843233	16
0	56	21.910728352914	17
0	57	23.836461137353	18
0	58	25.11378418638	19
0	59	26.289846301615	20
0	60	28.280147490162	21
0	61	29.972798106564	22
0	63	31.724938136596	23
0	69	33.677039381653	24
0	73	35.477642892465	25
0	75	36.843583477266	26
0	76	38.671605594294	27
0	82	39.905297603529	28
0	83	41.692915803824	29
0	85	43.178010027228	30
0	86	44.750247647125	31
0	87	46.092667233968	32
0	89	47.702312948719	33
0	91	48.845645263164	34
0	92	50.102851641203	35
0	99	51.379493187952	36
0	103	53.23954665086	37
0	107	54.931524159925	38
0	109	56.748559520885	39
0	112	58.443522959321	40
0	116	60.170212713841	41
0	120	61.666877668423	42
0	124	62.907447983117	43
0	126	64.145884280863	44
0	130	65.238015871334	45
0	134	66.469476901998	46
0	140	68.244444720053	47
0	141	69.2665405344	48
0	148	70.48891685398	49
0	151	71.85000062904	50
0	153	73.062894964662	51
0	159	74.246667280632	52
0	161	75.864121462756	53
0	162	77.087444440534	54
0	163	78.330422623854	55
0	164	79.809929935101	56
0	165	80.81067545533	57
0	167	81.840986813026	58
0	173	82.916775017817	59
0	175	84.513778258887	60
0	179	86.148081728564	61
0	180	87.293371687019	62
0	184	88.995391812483	63
0	185	90.095969525241	64
0	187	91.597892868641	65
0	193	92.89258636146	66
0	201	94.736861993402	67
0	202	96.664391269751	68
0	208	97.884727600806	69
0	212	98.973305456883	70
0	214	100.762137798437	71
0	221	102.180360605785	72
0	223	103.813321139043	73
0	224	105.488131075244	74
0	226	107.278985256873	75
0	230	109.261790027454	76
0	235	111.130344659401	77
0	237	112.268154552285	78
0	238	113.676744396411	79
0	240	114.841343944505	80
0	244	116.665305120483	81
0	248	118.562465966292	82
0	249	120.099900342603	83
0	254	122.09568665138	84
0	258	123.827392327911	85
0	260	125.236965558105	86
0	262	127.220127346073	87
0	263	129.111551019908	88
0	264	130.967099221503	89
0	265	132.295335574388	90
0	267	133.381579191969	91
0	268	134.916504528686	92
0	274	136.381041506152	93
0	276	138.2651224824	94
0	280	139.593188224906	95
0	286	141.591535303589	96
0	287	143.496800204586	97
0	288	144.509883014565	98
0	289	146.396367425644	99
0	293	147.688624205147	100
0	295	148.73262046169	101
0	299	150.213312246217	102
0	300	151.684380048033	103
0	304	152.728495268695	104
0	309	154.152611168878	105
0	313	155.701848033661	106
0	316	157.256052122762	107
0	318	158.504742054812	108
0	322	159.661976736582	109
0	323	161.611213761459	110
0	327	162.880444532105	111
0	334	164.500693042374	112
0	335	166.058697127581	113
0	342	167.073411912036	114
0	345	168.143530924649	115
0	347	169.31732937096	116
0	349	171.176361442156	117
0	352	172.262879582666	118
0	358	174.1288954018	119
0	364	176.038396942042	120
0	366	177.274844510326	121
0	370	178.749801355725	122
0	371	180.617968586352	123
0	372	182.146463362113	124
0	374	183.695130532453	125
0	381	185.528816051161	126
0	387	186.632071616672	127
0	389	187.877269201292	128
0	390	189.315304037262	129
0	391	190.812371566272	130
0	397	192.751829451029	131
0	398	194.243493348905	132
0	400	196.086910194098	133
0	401	197.308385819043	134
0	407	198.548915406768	135
0	408	200.27206456576	136
0	411	201.981404584213	137
0	414	203.94104315069	138
0	417	205.921378782563	139
0	423	207.366379574951	140
0	425	208.370634211306	141
0	427	209.632886514379	142
0	429	210.869773874604	143
0	431	212.012866392345	144
0	438	213.835855410979	145
0	439	215.051547597009	146
0	440	216.509275536132	147
0	445	218.454736344595	148
0	449	219.981396556445	149
0	450	221.025874059726	150
0	452	222.276966595635	151
0	453	224.146432260828	152
0	459	226.106973497275	153
0	468	227.836472716726	154
0	474	229.554332864549	155
0	478	230.707443808516	156
0	480	232.380066686388	157
0	481	233.605370121155	158
0	483	234.833352871783	159
0	485	236.249842768613	160
0	487	237.356923380246	161
0	498	238.518828596765	162
0	509	240.160506730512	163
0	511	242.073211210858	164
0	512	243.082482115444	165
0	516	244.25813886275	166
0	518	245.642874092641	167
0	524	247.0642281385	168
0	527	248.718511165199	169
0	529	250.54340709684	170
0	530	252.032642656551	171
0	534	253.574842845402	172
0	539	255.501186092696	173
0	540	257.070007168301	174
0	544	258.154958911552	175
0	546	260.123017575904	176
0	547	261.27013052193	177
0	553	262.436303553949	178
0	554	263.458573698378	179
0	556	264.94396111703	180
0	557	266.855884797019	181
0	564	268.566753479964	182
0	568	270.309058407401	183
0	572	271.883660047627	184
0	576	272.991958828256	185
0	580	274.70785843193	186
0	581	276.317761452947	187
0	589	277.482449107649	188
0	601	278.799154980652	189
0	603	280.373598109543	190
0	604	282.062402461966	191
0	609	283.631959398588	192
0	615	284.840175619194	193
0	622	286.526368220182	194
0	625	288.397625379342	195
0	629	290.254253900222	196
0	630	291.304990588532	197
0	631	292.539448337008	198
0	635	293.730434728631	199
0	636	295.533671896284	200
0	637	296.915213605932	201
0	639	298.379407280202	202
0	642	299.788961625037	203
0	650	301.700649279014	204
0	652	303.101534014645	205
0	658	304.557051655215	206
0	664	306.000456955128	207
0	666	307.315392947367	208
0	672	308.977684822709	209
0	674	310.030698595878	210
0	677	311.831693182543	211
0	681	313.054410243251	212
0	682	314.141850431061	213
0	688	315.928110193305	214
0	690	317.752025457874	215
0	694	319.468851495145	216
0	696	320.858955862543	217
0	697	322.484853656108	218
0	699	323.92281195529	219
0	703	325.020911484102	220
0	704	326.021306948347	221
0	712	327.236803631375	222
0	713	328.411313286826	223
0	716	329.673838646926	224
0	719	331.322049047874	225
0	721	333.28082477891	226
0	728	334.863140108605	227
0	729	336.038822255173	228
0	731	337.367046040326	229
0	739	339.290849684814	230
0	740	341.088562224602	231
0	741	342.123749806855	232
0	743	343.700178349001	233
0	745	344.735343733646	234
0	749	346.446525595693	235
0	754	347.826423941722	236
0	756	349.248769429356	237
0	757	350.599126562553	238
0	758	352.52482137115	239
0	764	353.775343852893	240
0	775	355.768710609137	241
0	778	357.426575718758	242
0	780	358.434649642635	243
0	785	359.708148081632	244
0	789	360.84312649568	245
0	791	362.740788830755	246
0	793	363.99083491213	247
0	796	365.794666103398	248
0	801	367.17113234483	249
0	803	368.743386755076	250
0	807	370.093928870356	251
0	811	371.723060781911	252
0	814	372.819128691761	253
0	818	374.118196095184	254
0	819	375.716777151527	255
0	826	376.735422076268	256
0	828	378.378202935524	257
0	829	380.241309628898	258
0	830	381.845325389255	259
0	832	383.487692114042	260
0	833	385.208725705819	261
0	838	387.130014963291	262
0	846	388.725710735732	263
0	851	390.475820647861	264
0	853	391.530018178356	265
0	855	392.964911240461	266
0	860	394.576417322579	267
0	864	395.663512449787	268
0	870	396.773992946214	269
0	871	398.720939147827	270
0	878	400.405490028514	271
0	880	401.44305275295	272
0	881	402.841070082347	273
0	885	404.477326444891	274
0	887	405.488032643526	275
0	889	406.792928722995	276
0	892	408.542274705908	277
0	895	409.890411478077	278
0	898	411.795892100857	279
0	906	413.187602422742	280
0	910	414.916097214754	281
0	911	416.077403772	282
0	912	417.258156452637	283
0	916	418.944358259283	284
0	920	420.807022740442	285
0	921	422.369786308689	286
0	927	423.549375994906	287
0	928	424.67982472487	288
0	929	426.117178813631	289
0	935	427.158109612374	290
0	937	428.920824799763	291
0	941	429.945371145925	292
0	948	431.126979970217	293
0	950	432.823262990995	294
0	954	434.056808151615	295
0	955	435.129850738061	296
0	956	437.053064556637	297
0	958	438.080271645061	298
0	960	439.727413560807	299
0	962	441.169318205289	300
0	963	442.561695451227	301
0	969	443.842170626002	302
0	970	445.557438301465	303
0	971	446.751353480697	304
0	976	447.891717382783	305
0	981	448.893676289899	306
0	986	450.68108237263	307
0	988	452.358841880534	308
0	992	454.320962030051	309
0	994	455.754533744028	310
0	998	457.559017052019	311
0	999	459.48499484135	312
0	1001	461.139014319593	313
0	1004	462.454117823468	314
0	1005	463.736206870136	315
0	1011	464.930255253642	316
0	1019	466.627083518851	317
0	1023	468.00068110631	318
0	1032	469.841434592224	319
0	1038	471.52895574093	320
0	1042	473.460364020505	321
0	1046	475.393418257433	322
0	1047	476.570792668574	323
0	1049	478.022141926531	324
0	1051	479.894404633045	325
0	1055	481.035075485548	326
0	1056	482.407486174097	327
0	1058	483.598379051853	328
0	1060	485.342420768999	329
0	1062	486.847870572312	330
0	1067	487.894860646762	331
0	1070	489.370516397832	332
0	1074	491.258912565028	333
0	1080	493.044071320984	334
0	1081	494.921495038159	335
0	1083	495.989116523722	336
0	1087	497.375383727327	337
0	1089	499.045949999085	338
0	1094	500.659796328824	339
0	1096	502.298510231385	340
0	1100	503.691435263101	341
0	1101	505.056021270184	342
0	1105	506.205819842713	343
0	1110	508.118786607944	344
0	1114	509.348325929912	345
0	1116	510.400828178814	346
0	1125	511.961219926672	347
0	1129	513.540511872694	348
0	1130	515.231191634042	349
0	1132	516.521561386371	350
0	1136	518.160209510317	351
0	1140	519.909076108439	352
0	1144	521.842477847431	353
0	1148	523.836398085654	354
0	1149	525.226266894331	355
0	1155	527.168019503196	356
0	1156	528.686173591604	357
0	1157	530.357828512862	358
0	1161	531.603371813735	359
0	1163	533.022299744263	360
0	1167	535.015009966753	361
0	1172	536.766918244846	362
0	1174	537.97344314035	363
0	1178	539.252891986705	364
0	1182	540.274398702504	365
0	1183	541.817828865796	366
0	1189	542.826964486697	367
0	1190	543.937438532551	368
0	1194	545.294364884337	369
0	1198	547.096444245036	370
0	1202	549.007894693482	371
0	1205	550.46522693064	372
0	1208	552.44249877178	373
0	1209	553.451683097592	374
0	1211	554.628340542157	375
0	1215	556.279985692193	376
0	1216	558.007897878605	377
0	1219	559.648870391146	378
0	1223	561.517852096892	379
0	1230	562.812244730144	380
0	1236	564.675926614859	381
0	1237	566.246934271957	382
0	1243	567.29523312238	383
0	1245	569.127054043188	384
0	1247	570.716792220091	385
0	1248	572.07972446464	386
0	1249	573.692168957395	387
0	1251	575.663909250013	388
0	1255	576.677740327855	389
0	1257	578.243624570621	390
0	1263	580.086860932018	391
0	1264	581.321290583656	392
0	1265	582.811371894161	393
0	1268	584.289436102685	394
0	1269	586.220003287381	395
0	1270	587.757931773158	396
0	1271	588.857229881294	397
0	1272	590.240704343494	398
0	1273	591.546937270628	399
0	1274	592.805040048275	400
0	1277	594.246139805138	401
0	1281	596.124997724851	402
0	1282	597.963001071082	403
0	1285	599.551023911757	404
0	1290	601.264135020159	405
0	1292	603.067175832184	406
0	1293	604.407478428518	407
0	1301	605.447898182857	408
0	1304	606.965416283419	409
0	1306	608.223971789077	410
0	1314	609.960688159641	411
0	1315	611.818318904217	412
0	1316	612.967788471447	413
0	1317	614.735109347224	414
0	1322	616.368562602045	415
0	1326	617.388371608526	416
0	1328	618.510298904105	417
0	1329	619.895942173273	418
0	1330	620.94787263831	419
0	1331	622.887021334449	420
0	1332	624.438922674002	421
0	1333	626.032697111441	422
0	1334	627.051033050593	423
0	1336	628.450293542191	424
0	1337	629.982928969271	425
0	1339	631.048103846915	426
0	1341	632.989297083419	427
0	1343	634.159805240881	428
0	1353	635.719929789033	429
0	1354	637.308395151587	430
0	1356	638.824266028896	431
0	1357	640.692689568808	432
0	1363	642.408875316221	433
0	1364	643.643582294767	434
0	1365	645.512026393392	435
0	1370	647.117540818478	436
0	1371	649.109246778839	437
0	1379	650.908006263968	438
0	1380	651.932487290889	439
0	1382	653.736181990081	440
0	1384	655.083803050989	441
0	1388	656.716705505807	442
0	1394	658.364704807127	443
0	1396	659.899554454094	444
0	1401	661.78308393208	445
0	1402	662.835753574107	446
0	1410	664.215175573087	447
0	1411	665.704886153645	448
0	1415	667.550698774007	449
0	1419	669.258162241966	450
0	1423	670.689559729375	451
0	1428	672.357745166939	452
0	1429	674.054055223312	453
0	1434	676.022329767072	454
0	1435	677.320664064098	455
0	1436	678.876870117454	456
0	1437	680.567166393694	457
0	1438	682.138025036619	458
0	1439	683.511961522351	459
0	1443	684.580344838162	460
0	1447	686.160385538663	461
0	1448	687.828441064644	462
0	1449	689.571172095674	463
0	1453	691.528173678393	464
0	1454	693.347280962231	465
0	1464	694.412515373273	466
0	1466	695.659779252323	467
0	1467	697.151122834605	468
0	1471	699.102320568708	469
0	1472	700.948880066236	470
0	1476	702.204535338634	471
0	1478	703.442042700786	472
0	1480	705.335362548547	473
0	1487	706.949477719216	474
0	1488	708.017528258337	475
0	1490	709.088986162868	476
0	1493	710.29827951461	477
0	1494	712.099997737053	478
0	1496	713.732845073174	479
0	1498	715.618920613154	480
0	1499	717.275767162982	481
0	1502	718.818078733356	482
0	1506	720.300748838186	483
0	1509	721.672852718811	484
0	1513	723.549658338148	485
0	1515	725.053436477277	486
0	1522	726.412163047194	487
0	1523	728.393588295513	488
0	1524	729.740178190478	489
0	1527	731.266167923183	490
0	1529	733.133588504352	491
0	1535	734.583475441512	492
0	1537	735.741994680677	493
0	1543	737.563523046978	494
0	1545	739.545418392241	495
0	1546	740.848266609319	496
0	1553	742.84167157214	497
0	1557	744.256670084389	498
0	1559	745.695839544598	499
0	1561	747.160417268824	500
0	1562	749.126506096989	501
0	1568	750.971149909616	502
0	1572	752.550734135861	503
0	1573	753.718658706014	504
0	1574	755.681349083389	505
0	1576	757.334717544335	506
0	1578	758.520648340303	507
0	1581	760.003259864244	508
0	1585	761.356424768762	509
0	1586	762.496221242546	510
0	1587	764.452330457819	511
0	1591	766.290657090563	512
0	1592	767.959886326296	513
0	1593	769.371570222154	514
0	1596	771.138195385765	515
0	1599	772.779419935383	516
0	1600	773.965489148935	517
0	1601	775.170459356	518
0	1602	776.607558693345	519
0	1605	778.582732184864	520
0	1606	779.968604356823	521
0	1612	781.073486339608	522
0	1616	782.170509620644	523
0	1625	783.769545258097	524
0	1629	785.63217088052	525
0	1635	787.36885804248	526
0	1639	789.344706137972	527
0	1641	790.752714535063	528
0	1642	792.046920120092	529
0	1645	793.519924605572	530
0	1648	795.421047966768	531
0	1649	796.899236827697	532
0	1651	797.962933728545	533
0	1653	799.310779738779	534
0	1657	800.715909261097	535
0	1661	801.905633809584	536
0	1668	803.441153378998	537
0	1669	805.148305914671	538
0	1673	806.791373327448	539
0	1677	808.341178272226	540
0	1682	809.706297359503	541
0	1684	811.40606027686	542
0	1685	813.383970074197	543
0	1693	814.760025014477	544
0	1694	816.161132917348	545
0	1700	817.641890599234	546
0	1706	818.81012539736	547
0	1708	819.881816696217	548
0	1709	820.999679881222	549
0	1710	822.31261205797	550
0	1714	824.070641128886	551
0	1715	825.53062359251	552
0	1720	826.647928652194	553
0	1726	828.265571242039	554
0	1727	830.254427667781	555
0	1731	831.813627225188	556
0	1732	833.287151255486	557
0	1738	834.695419374462	558
0	1741	836.498398894751	559
0	1743	837.967614062903	560
0	1747	839.772726861368	561
0	1748	840.910639436291	562
0	1752	842.754743587998	563
0	1756	844.213762717628	564
0	1757	846.13671745344	565
0	1766	847.893298681201	566
0	1771	849.054696860099	567
0	1775	850.369668318033	568
0	1777	851.635523907449	569
0	1783	853.617630686685	570
0	1785	855.496309167547	571
0	1789	857.117222112911	572
0	1790	858.97112951831	573
0	1791	860.431541672051	574
0	1793	862.176908330601	575
0	1797	863.475542093236	576
0	1798	864.603534861309	577
0	1801	866.038049318669	578
0	1807	867.316426365943	579
0	1809	868.577676653005	580
0	1810	870.563312876811	581
0	1811	871.953104473958	582
0	1812	873.76796690871	583
0	1813	875.74289596647	584
0	1821	876.89410188918	585
0	1822	878.379041894646	586
0	1824	879.951020433176	587
0	1825	881.555297914035	588
0	1829	882.874060268122	589
0	1831	883.885640378417	590
0	1835	885.174741982324	591
0	1838	886.506378013482	592
0	1840	888.305503080673	593
0	1846	889.859257643884	594
0	1847	890.940099786576	595
0	1855	891.940369441481	596
0	1856	893.126974877976	597
0	1857	894.360349034965	598
0	1858	896.07714695584	599
0	1864	897.350652504088	600
0	1866	898.64944240598	601
0	1868	900.221760742208	602
0	1872	902.074189635301	603
0	1876	903.306003678665	604
0	1883	904.329454995534	605
0	1889	905.909924743306	606
0	1890	907.850294496473	607
0	1892	909.21100976279	608
0	1896	911.042914909851	609
0	1898	912.420737682218	610
0	1901	913.421439618878	611
0	1907	915.095469606649	612
0	1912	916.671640293747	613
0	1913	918.618493177304	614
0	1919	920.113024238571	615
0	1923	921.41842014187	616
0	1925	922.798780032508	617
0	1930	924.781356544075	618
0	1931	925.997614858048	619
0	1937	927.807307071127	620
0	1939	929.054497488849	621
0	1941	930.865334323915	622
0	1943	932.827641084399	623
0	1950	934.296418338623	624
0	1951	935.378299723454	625
0	1955	936.582311705062	626
0	1959	938.182400800362	627
0	1965	939.585656841825	628
0	1967	941.473821641951	629
0	1973	942.954894305281	630
0	1974	944.051745892809	631
0	1976	945.378501431625	632
0	1978	946.464452958973	633
0	1983	947.977136133313	634
0	1987	949.295959417084	635
0	1988	950.877087923772	636
0	1992	952.612126486915	637
0	1997	954.038798750684	638
0	2001	955.152266864039	639
0	2002	956.175380943881	640
0	2006	957.482724200541	641
0	2007	959.120586325021	642
0	2008	960.250029659204	643
0	2012	961.958176479747	644
0	2014	963.925884956799	645
0	2015	965.644850988945	646
0	2016	967.105141256543	647
0	2021	968.991472929789	648
0	2024	970.300952070698	649
0	2026	971.742762636	650
0	2030	973.295405458731	651
0	2031	975.257614893212	652
0	2032	976.734416546372	653
0	2034	977.859072854814	654
0	2038	979.569487131505	655
0	2045	980.748650580483	656
0	2048	982.46415370966	657
0	2053	984.344438759449	658
0	2057	985.777247804754	659
0	2059	987.338527000348	660
0	2061	988.545819646285	661
0	2062	990.354653278903	662
0	2065	992.167901753054	663
0	2070	993.728493399757	664
0	2071	995.348572160189	665
0	2075	997.240969632358	666
0	2076	998.771523772577	667
1	4	1.288418250771	1
1	9	5.0025344977	2
1	19	7.866041031879	3
1	25	11.008644351748	4
1	31	12.616430129074	5
1	43	13.996687555099	6
1	47	15.651748313898	7
1	53	20.244195833892	8
1	64	31.807556694602	9
1	70	33.838542323071	10
1	77	38.840743567164	11
1	93	50.246564966626	12
1	100	51.502237746678	13
1	104	53.393958637114	14
1	110	56.875146911647	15
1	113	58.565831060747	16
1	117	60.342015933842	17
1	121	61.744352343804	18
1	127	64.234868773994	19
1	131	65.360510706624	20
1	135	66.50955215086	21
1	142	69.344430955729	22
1	149	70.5936207879	23
1	154	73.165266480017	24
1	168	82.012075684211	25
1	176	84.584000108797	26
1	181	87.318126490698	27
1	188	91.749045340527	28
1	194	92.92057957028	29
1	203	96.840805645701	30
1	209	97.98406436333	31
1	215	100.946032764523	32
1	227	107.408610486939	33
1	231	109.315800112789	34
1	241	115.042988344179	35
1	245	116.736679600479	36
1	250	120.213542093748	37
1	255	122.215798391113	38
1	269	135.085066092508	39
1	277	138.296677077453	40
1	281	139.730908490411	41
1	290	146.48806382566	42
1	296	148.823882263677	43
1	301	151.804701035364	44
1	305	152.93041479011	45
1	310	154.197927275599	46
1	314	155.737388274154	47
1	319	158.532302943895	48
1	324	161.746203780095	49
1	328	162.927839259343	50
1	336	166.163941306749	51
1	343	167.222920696757	52
1	350	171.252903815076	53
1	353	172.368714929725	54
1	359	174.173293126376	55
1	367	177.455194533599	56
1	375	183.735221709541	57
1	382	185.552231767112	58
1	392	190.964171614935	59
1	402	197.502012188453	60
1	409	200.38590606306	61
1	412	202.077949033805	62
1	415	204.140406280851	63
1	418	205.967485379399	64
1	432	212.146868713698	65
1	441	216.659767525785	66
1	446	218.47809034144	67
1	454	224.316752898035	68
1	460	226.259428010279	69
1	469	228.02616976699	70
1	475	229.701514843599	71
1	488	237.490754684283	72
1	500	238.546722134586	73
1	513	243.275278400473	74
1	519	245.724802989899	75
1	525	247.204737737917	76
1	531	252.11984653876	77
1	535	253.717901833447	78
1	541	257.245639528378	79
1	548	261.339905252429	80
1	558	266.904111060612	81
1	565	268.59296483553	82
1	569	270.434641329304	83
1	573	271.993584134425	84
1	577	273.137300424538	85
1	582	276.479501426545	86
1	590	277.522039193147	87
1	605	282.177957913213	88
1	610	283.762864236551	89
1	616	285.009313010293	90
1	623	286.735717801036	91
1	626	288.533651554434	92
1	632	292.659356272076	93
1	640	298.581695873742	94
1	643	299.99550020018	95
1	653	303.16151830972	96
1	659	304.707075640073	97
1	667	307.413228949732	98
1	675	310.089939108724	99
1	678	311.991901467994	100
1	683	314.216256016921	101
1	691	317.856872008561	102
1	700	323.945121112724	103
1	705	326.202583577577	104
1	714	328.492130334016	105
1	717	329.875917141777	106
1	722	333.37483345871	107
1	732	337.418911550091	108
1	746	344.815679054707	109
1	750	346.568387790885	110
1	759	352.580805732366	111
1	765	353.893759090588	112
1	776	355.925452382779	113
1	781	358.63793385455	114
1	786	359.797338865328	115
1	794	364.037979479836	116
1	797	365.952003654955	117
1	804	368.813483095472	118
1	808	370.28275199638	119
1	812	371.888448630312	120
1	815	372.979568505853	121
1	820	375.838112119557	122
1	834	385.415523238468	123
1	839	387.177098022021	124
1	847	388.816727086817	125
1	856	393.040318201408	126
1	861	394.736025256057	127
1	865	395.778209398408	128
1	872	398.891473198331	129
1	882	402.912596264983	130
1	890	406.993910465616	131
1	893	408.711316639882	132
1	896	410.060148243493	133
1	899	411.866359890144	134
1	907	413.353667304781	135
1	913	417.465125325051	136
1	917	419.089038287294	137
1	922	422.488657338267	138
1	930	426.249648302803	139
1	938	429.09943037034	140
1	942	430.14909166283	141
1	951	433.030977064124	142
1	964	442.661927859912	143
1	972	446.943475270765	144
1	977	447.964092255388	145
1	982	448.949240129694	146
1	989	452.405113976814	147
1	995	455.946833101795	148
1	1002	461.203933828901	149
1	1006	463.897716574898	150
1	1012	464.976251261673	151
1	1020	466.654088460427	152
1	1024	468.052600308449	153
1	1033	469.951569202394	154
1	1039	471.676050581247	155
1	1043	473.580436714123	156
1	1052	479.947438698555	157
1	1063	487.024563177179	158
1	1068	488.007964850548	159
1	1071	489.432482307355	160
1	1075	491.299295010352	161
1	1084	496.154309933048	162
1	1090	499.200947369666	163
1	1097	502.476302228065	164
1	1102	505.125950459871	165
1	1106	506.238347237741	166
1	1111	508.239493060168	167
1	1117	510.534822626897	168
1	1126	512.107067090748	169
1	1133	516.570300526952	170
1	1137	518.212946778571	171
1	1141	520.064775632264	172
1	1145	522.014377425371	173
1	1150	525.360953867605	174
1	1158	530.3857574282	175
1	1164	533.125820204382	176
1	1168	535.171574390479	177
1	1175	538.038288584263	178
1	1179	539.285383117292	179
1	1184	541.98406651312	180
1	1191	544.007033096335	181
1	1195	545.397352206679	182
1	1199	547.200439079755	183
1	1203	549.037673799954	184
1	1206	550.555480030916	185
1	1212	554.70048029224	186
1	1217	558.08091433332	187
1	1220	559.838964186063	188
1	1224	561.583311225969	189
1	1231	563.008615247627	190
1	1238	566.308273635098	191
1	1252	575.839268007609	192
1	1258	578.278690641557	193
1	1266	582.97978939924	194
1	1275	592.940625682518	195
1	1278	594.278187735342	196
1	1283	598.087645535008	197
1	1286	599.695361236215	198
1	1294	604.554387743017	199
1	1302	605.61306035568	200
1	1307	608.344596469766	201
1	1318	614.86155957185	202
1	1323	616.389247979688	203
1	1344	634.267736296466	204
1	1358	640.791092035957	205
1	1366	645.593541703773	206
1	1372	649.287726824197	207
1	1385	655.172144379004	208
1	1389	656.844299436599	209
1	1397	659.944878668723	210
1	1403	662.878170294141	211
1	1412	665.85466485504	212
1	1416	667.60685076724	213
1	1420	669.392471235962	214
1	1424	670.87524402818	215
1	1430	674.14148954715	216
1	1440	683.66146164336	217
1	1444	684.737672371666	218
1	1450	689.721087110433	219
1	1455	693.417261044082	220
1	1468	697.345087292545	221
1	1473	701.063777134556	222
1	1481	705.522951794249	223
1	1491	709.227650126232	224
1	1500	717.418368304739	225
1	1503	718.870298427538	226
1	1507	720.482481493847	227
1	1510	721.72238374928	228
1	1516	725.133211474826	229
1	1525	729.926498353611	230
1	1530	733.341251305403	231
1	1538	735.913486270347	232
1	1547	740.982663946821	233
1	1554	743.047967466729	234
1	1563	749.271991335603	235
1	1569	751.086632314663	236
1	1579	758.726641502601	237
1	1582	760.069756072666	238
1	1588	764.601817084876	239
1	1594	769.427713814624	240
1	1597	771.314334229314	241
1	1603	776.689549601855	242
1	1607	780.025986954257	243
1	1613	781.248500401843	244
1	1617	782.215392567685	245
1	1626	783.872083436085	246
1	1630	785.697534351057	247
1	1636	787.572399395895	248
1	1643	792.162952390609	249
1	1646	793.618779853291	250
1	1654	799.471915686895	251
1	1658	800.742669784281	252
1	1662	802.056069868783	253
1	1670	805.276679979813	254
1	1674	806.903062517379	255
1	1678	808.374811026351	256
1	1686	813.450988825527	257
1	1695	816.297195866015	258
1	1701	817.705059201282	259
1	1711	822.496223271959	260
1	1716	825.653371706099	261
1	1721	826.809427889181	262
1	1728	830.307387166416	263
1	1733	833.343898595492	264
1	1739	834.728614058685	265
1	1744	838.157836171702	266
1	1749	841.017082871899	267
1	1753	842.93473450314	268
1	1758	846.299476630941	269
1	1767	847.947272535539	270
1	1772	849.137240572443	271
1	1778	851.760805021056	272
1	1786	855.67113863955	273
1	1794	862.349263327057	274
1	1799	864.69866209971	275
1	1802	866.234885413972	276
1	1814	875.762993251635	277
1	1826	881.719453615529	278
1	1832	883.946468652221	279
1	1836	885.275027301391	280
1	1841	888.338481700029	281
1	1848	891.019587484331	282
1	1859	896.198603659235	283
1	1869	900.315575035	284
1	1873	902.156165808458	285
1	1877	903.467682866531	286
1	1884	904.489962903269	287
1	1893	909.416234535437	288
1	1899	912.589968505234	289
1	1902	913.579111986605	290
1	1908	915.295429370461	291
1	1914	918.714974372385	292
1	1920	920.219584689324	293
1	1926	922.84757086724	294
1	1932	926.112683179914	295
1	1944	932.857813838478	296
1	1952	935.501416723414	297
1	1956	936.638577407326	298
1	1960	938.350748285905	299
1	1968	941.55640525951	300
1	1979	946.602322364997	301
1	1984	948.043493304471	302
1	1989	951.001773778551	303
1	1993	952.676414563552	304
1	1998	954.209336428601	305
1	2003	956.242201524719	306
1	2009	960.445635788525	307
1	2017	967.291772543484	308
1	2022	969.037411310492	309
1	2027	971.884565552438	310
1	2035	977.890167279723	311
1	2039	979.621897575638	312
1	2046	980.926778162009	313
1	2049	982.639570898916	314
1	2054	984.51715031784	315
1	2063	990.551017786634	316
1	2066	992.226402122275	317
1	2072	995.519933455537	318
1	2077	998.96147398298	319
2	4	1.288418250771	1
2	9	5.0025344977	2
2	19	7.866041031879	3
2	25	11.008644351748	4
2	31	12.616430129074	5
2	43	13.996687555099	6
2	47	15.651748313898	7
2	53	20.244195833892	8
2	64	31.807556694602	9
2	70	33.838542323071	10
2	77	38.840743567164	11
2	93	50.246564966626	12
2	100	51.502237746678	13
2	104	53.393958637114	14
2	110	56.875146911647	15
2	113	58.565831060747	16
2	117	60.342015933842	17
2	121	61.744352343804	18
2	127	64.234868773994	19
2	131	65.360510706624	20
2	135	66.50955215086	21
2	142	69.344430955729	22
2	149	70.5936207879	23
2	154	73.165266480017	24
2	168	82.012075684211	25
2	176	84.584000108797	26
2	181	87.318126490698	27
2	188	91.749045340527	28
2	194	92.92057957028	29
2	203	96.840805645701	30
2	209	97.98406436333	31
2	215	100.946032764523	32
2	227	107.408610486939	33
2	231	109.315800112789	34
2	241	115.042988344179	35
2	245	116.736679600479	36
2	250	120.213542093748	37
2	255	122.215798391113	38
2	269	135.085066092508	39
2	277	138.296677077453	40
2	281	139.730908490411	41
2	290	146.48806382566	42
2	296	148.823882263677	43
2	301	151.804701035364	44
2	305	152.93041479011	45
2	310	154.197927275599	46
2	314	155.737388274154	47
2	319	158.532302943895	48
2	324	161.746203780095	49
2	328	162.927839259343	50
2	336	166.163941306749	51
2	343	167.222920696757	52
2	350	171.252903815076	53
2	353	172.368714929725	54
2	359	174.173293126376	55
2	367	177.455194533599	56
2	375	183.735221709541	57
2	382	185.552231767112	58
2	392	190.964171614935	59
2	402	197.502012188453	60
2	409	200.38590606306	61
2	412	202.077949033805	62
2	415	204.140406280851	63
2	418	205.967485379399	64
2	432	212.146868713698	65
2	441	216.659767525785	66
2	446	218.47809034144	67
2	454	224.316752898035	68
2	460	226.259428010279	69
2	469	228.02616976699	70
2	475	229.701514843599	71