version 3
run General-4-20231019-18:57:58-54425
attr configname General
attr datetime 20231019-18:57:58
attr datetimef 20231019-185758
attr experiment General
attr inifile omnetpp.ini
attr iterationvars ""
attr iterationvarsd ""
attr iterationvarsf ""
attr measurement ""
attr network Multihop
attr processid 54425
attr repetition 4
attr replication #4
attr resultdir results
attr runnumber 4
attr seedset 4
config network Multihop
config Multihop.node[*].transmissionTime "uniform(1s, 2s)"
config Multihop.node[*].delayTime "uniform(0.01s, 0.2s)"
config Multihop.node[0].lossProbability 0.3
config Multihop.node[1].lossProbability 0.3
config Multihop.node[2].lossProbability 0.3
config Multihop.node[3].lossProbability 0.3/2
config Multihop.node[4].lossProbability 0.3/2
config Multihop.node[5].lossProbability 0.3*2
config Multihop.node[6].lossProbability 0.3*2
config Multihop.node[7].lossProbability 0.3*3
config record-eventlog true
config sim-time-limit 1000s
config repeat 5

vector 0 Multihop.node[0] txVector ETV
vector 1 Multihop.node[2] rxVector ETV
vector 2 Multihop.node[2] txVector ETV
vector 3 Multihop.node[4] rxVector ETV
vector 4 Multihop.node[4] txVector ETV
vector 5 Multihop.node[1] rxVector ETV
vector 6 Multihop.node[1] txVector ETV
vector 7 Multihop.node[6] rxVector ETV
vector 8 Multihop.node[6] txVector ETV
vector 9 Multihop.node[3] rxVector ETV
vector 10 Multihop.node[3] txVector ETV
vector 11 Multihop.node[5] rxVector ETV
vector 12 Multihop.node[5] txVector ETV
vector 13 Multihop.node[7] rxVector ETV
vector 14 Multihop.node[7] e2eVector ETV
0	0	0	1
0	1	0.193735669288	2
0	5	2.094357123985	3
0	6	4.070631578718	4
0	9	5.076861835704	5
0	13	6.274546907437	6
0	17	7.887072250633	7
0	19	9.673378234882	8
0	20	11.114726768261	9
0	26	12.180436307019	10
0	27	13.338659714595	11
0	28	14.88386236845	12
0	29	16.408266452527	13
0	35	18.045876701283	14
0	37	19.513627054323	15
0	38	21.068367918874	16
0	39	22.693298768871	17
0	42	24.588799930564	18
0	43	26.086594051369	19
0	49	27.269039452462	20
0	52	29.115761724221	21
0	54	30.195740964184	22
0	55	31.928334416276	23
0	59	33.822985709565	24
0	62	35.414859355347	25
0	63	36.935533756776	26
0	70	38.242546428381	27
0	72	39.724006371726	28
0	73	41.074291585865	29
0	77	42.263317339741	30
0	79	43.400243157907	31
0	80	45.302665016767	32
0	81	47.28228127995	33
0	85	48.905850118645	34
0	86	49.909771015788	35
0	91	51.372100378074	36
0	95	52.462242100541	37
0	96	54.435520097999	38
0	102	55.475611219568	39
0	105	56.610356865603	40
0	113	58.541771133117	41
0	115	60.532567950118	42
0	117	62.286423399964	43
0	118	63.375196260553	44
0	122	65.204614208931	45
0	124	66.499246767409	46
0	128	67.8218217475	47
0	129	69.549550418894	48
0	133	71.239335712896	49
0	136	72.391221315519	50
0	137	73.703426349594	51
0	138	74.821871869185	52
0	139	76.197212014266	53
0	140	77.22698601234	54
0	146	78.764767681865	55
0	151	80.512016124941	56
0	152	81.917775338899	57
0	153	83.889478660106	58
0	154	84.933401168241	59
0	158	86.218645761871	60
0	161	87.675584998365	61
0	162	89.186972284374	62
0	165	91.135298165643	63
0	166	92.68410328814	64
0	171	94.283900777727	65
0	177	96.237856751924	66
0	178	98.073731289396	67
0	179	99.602803672116	68
0	180	101.015844715444	69
0	181	102.078411621192	70
0	185	103.274436014622	71
0	186	104.910570028854	72
0	187	106.043412035481	73
0	194	107.126119646394	74
0	200	108.293849856976	75
0	201	110.024065188283	76
0	205	111.620568465127	77
0	209	113.288022994215	78
0	214	114.552938717336	79
0	218	115.585998184898	80
0	221	117.394247907599	81
0	224	118.713673098631	82
0	225	120.285497792218	83
0	233	121.436987041183	84
0	234	122.438342912508	85
0	243	123.97779110555	86
0	245	125.134884572974	87
0	250	126.439700281634	88
0	252	128.174219460846	89
0	257	129.375201764205	90
0	258	130.715567926099	91
0	259	131.793439129987	92
0	261	132.851020469018	93
0	266	134.401167896497	94
0	267	135.851975630657	95
0	271	136.925958074783	96
0	275	138.525490294364	97
0	280	140.028044814397	98
0	288	141.831540815685	99
0	292	143.146124460887	100
0	297	144.648789945444	101
0	298	146.342134436745	102
0	302	148.143848526444	103
0	303	149.708705631703	104
0	306	150.827850527981	105
0	308	152.487708777342	106
0	313	154.321826118663	107
0	317	156.002515153647	108
0	321	157.861234024087	109
0	323	159.043309030509	110
0	325	160.228575310357	111
0	327	162.192324752141	112
0	329	164.086350466976	113
0	333	165.194797112294	114
0	339	166.299718579663	115
0	342	167.475732061932	116
0	345	168.774059057621	117
0	353	169.805015961326	118
0	354	171.715076628992	119
0	358	173.015138470255	120
0	362	174.728555900896	121
0	373	176.016678711087	122
0	379	177.798353532482	123
0	382	179.582641019872	124
0	384	181.22150549401	125
0	385	183.128067326652	126
0	389	184.509472312791	127
0	393	185.924190058525	128
0	394	187.167569365504	129
0	397	188.942494002555	130
0	398	190.436760694405	131
0	403	192.163842491956	132
0	404	193.796882562024	133
0	405	194.810778567485	134
0	406	196.798964987892	135
0	409	198.015306362101	136
0	410	199.353057301986	137
0	412	200.972707650076	138
0	416	202.55746998164	139
0	417	204.139990061905	140
0	418	205.64490239896	141
0	422	207.007451592629	142
0	423	208.120988786138	143
0	424	209.341917646035	144
0	425	211.332585462752	145
0	430	213.252235677709	146
0	433	214.889286746188	147
0	439	216.035598352236	148
0	440	217.131643498234	149
0	451	218.577977119397	150
0	453	220.370481582043	151
0	455	221.668494682211	152
0	456	222.891611050034	153
0	458	224.68945948492	154
0	461	225.760197471047	155
0	462	227.459831852384	156
0	466	228.639761959586	157
0	469	229.69695467936	158
0	470	231.238806135404	159
0	471	232.369478459154	160
0	478	234.17394545666	161
0	479	235.710425687405	162
0	480	237.358518557074	163
0	481	238.383584843865	164
0	485	239.610447124262	165
0	486	240.732360719154	166
0	488	242.271381799048	167
0	492	243.978953329064	168
0	496	245.663610902531	169
0	498	247.598439925732	170
0	500	249.289635573896	171
0	511	250.514870864023	172
0	515	251.614715242442	173
0	521	253.149227846796	174
0	525	254.292201756649	175
0	529	255.335407253737	176
0	530	257.258440990616	177
0	537	259.183993808842	178
0	538	260.90793710799	179
0	543	262.72835200551	180
0	547	264.636126157977	181
0	549	266.202319334643	182
0	551	267.441604277501	183
0	552	269.105874336939	184
0	556	270.470503690336	185
0	557	271.741700528804	186
0	560	273.517786907647	187
0	565	275.432785377521	188
0	567	277.27872970459	189
0	573	278.485627954276	190
0	574	280.279437914872	191
0	581	282.195767756467	192
0	582	283.857661561956	193
0	583	285.839701084568	194
0	586	287.518605384425	195
0	592	288.7243751105	196
0	593	290.721640184669	197
0	601	292.021728389345	198
0	602	293.825696729271	199
0	603	294.990597141821	200
0	607	296.559642733688	201
0	618	298.446979527509	202
0	624	299.983632575868	203
0	628	301.291310217845	204
0	633	303.18010841837	205
0	634	305.125147813613	206
0	635	306.873323193433	207
0	638	308.436250650006	208
0	642	310.20425991007	209
0	650	311.685849433214	210
0	652	313.66966529671	211
0	656	315.138632136778	212
0	661	316.787506391442	213
0	667	318.15251770025	214
0	668	319.619502238611	215
0	670	321.302376439942	216
0	671	323.185434633082	217
0	672	324.9830135346	218
0	674	326.497655319663	219
0	678	328.10198535459	220
0	684	329.893706464124	221
0	689	331.509030820717	222
0	694	333.029911114051	223
0	700	334.548406464894	224
0	704	336.366488661765	225
0	709	337.49179302846	226
0	713	339.132584418086	227
0	714	340.62020403115	228
0	716	341.656553443204	229
0	721	343.142667710231	230
0	726	344.208083397392	231
0	728	345.271096254848	232
0	729	347.214447625363	233
0	731	348.823038061764	234
0	737	349.933742834171	235
0	742	351.282963711917	236
0	747	352.772671378366	237
0	749	354.44859443806	238
0	750	356.027358202412	239
0	756	357.842696852898	240
0	757	359.178151345728	241
0	758	360.301598110385	242
0	760	361.976125885648	243
0	762	363.317885953849	244
0	766	365.309689943129	245
0	768	367.084292473886	246
0	769	368.224629646316	247
0	770	369.479996689278	248
0	773	371.040109673663	249
0	780	372.795924663692	250
0	785	374.581919124265	251
0	786	376.128932563037	252
0	790	377.190413564358	253
0	791	379.080927542325	254
0	792	380.995045619698	255
0	798	382.031950305596	256
0	805	383.748162080914	257
0	811	385.610209010456	258
0	816	387.609970143445	259
0	820	388.99065067401	260
0	821	390.649035963377	261
0	823	392.499678670576	262
0	828	394.14259204842	263
0	836	395.206866089402	264
0	837	396.876159150534	265
0	838	398.647110668857	266
0	839	400.340994666711	267
0	843	402.311258791861	268
0	845	403.98600815717	269
0	851	405.796028397892	270
0	852	407.077762746865	271
0	853	408.874203628775	272
0	855	410.414536043451	273
0	861	411.547505501107	274
0	865	413.347507462752	275
0	869	414.588566638212	276
0	871	415.952393574556	277
0	875	417.033158302689	278
0	876	418.619251293512	279
0	881	420.603381833443	280
0	882	421.816378265069	281
0	884	423.650956482309	282
0	885	424.8080679359	283
0	891	426.647911355048	284
0	896	427.990684877764	285
0	897	429.594168288083	286
0	903	430.711370102278	287
0	907	432.475517357382	288
0	910	434.442531427284	289
0	914	436.08103269074	290
0	917	437.884258309993	291
0	921	439.526237991554	292
0	924	441.493649852378	293
0	925	443.004162633242	294
0	927	444.181578200925	295
0	928	446.057939766589	296
0	930	447.878695531431	297
0	932	449.53107732363	298
0	933	451.52393911561	299
0	934	452.623028921112	300
0	938	454.150900812037	301
0	939	455.313948923638	302
0	940	457.255779269533	303
0	945	458.800055532399	304
0	946	460.761731728129	305
0	951	462.611939221304	306
0	953	464.034086285075	307
0	956	465.425848573828	308
0	958	467.16270235056	309
0	962	468.278506070291	310
0	963	469.389595824442	311
0	964	470.934638706883	312
0	965	472.310497841248	313
0	966	473.765285594538	314
0	969	475.414882565765	315
0	975	476.788463572888	316
0	976	478.372258755062	317
0	981	479.998364458475	318
0	989	481.46955933786	319
0	990	483.329492974244	320
0	992	484.751922001513	321
0	996	486.498624867676	322
0	1000	487.657823151592	323
0	1005	488.776384794535	324
0	1007	489.917803463908	325
0	1008	491.377184354151	326
0	1012	493.084787049946	327
0	1015	494.312645788221	328
0	1016	496.09924900081	329
0	1017	497.608055564957	330
0	1021	499.292157052001	331
0	1025	500.541350966701	332
0	1027	501.545621974542	333
0	1028	502.869228302417	334
0	1029	504.46132826494	335
0	1031	506.292150542521	336
0	1032	508.117473774039	337
0	1033	509.720612093721	338
0	1037	511.19589677235	339
0	1042	512.512312126494	340
0	1044	513.902232767696	341
0	1049	515.211104404562	342
0	1053	516.284634504615	343
0	1054	517.991315203168	344
0	1063	519.065226002977	345
0	1065	520.962471163048	346
0	1071	522.500599626367	347
0	1072	523.971061819614	348
0	1073	525.26137645767	349
0	1075	527.101755093233	350
0	1082	528.927181381182	351
0	1083	530.492390231843	352
0	1085	532.200984488622	353
0	1087	533.943683979482	354
0	1091	535.186089351688	355
0	1092	536.579017164799	356
0	1093	538.007569182113	357
0	1095	539.286178216485	358
0	1096	540.388584503585	359
0	1100	542.256223008882	360
0	1104	543.359648523533	361
0	1105	544.411395427219	362
0	1107	545.797933558382	363
0	1108	547.723893124059	364
0	1110	549.164825658927	365
0	1114	550.932491962713	366
0	1116	552.708427960667	367
0	1117	554.154245201647	368
0	1123	555.255605939226	369
0	1127	557.13534986685	370
0	1133	558.675614739451	371
0	1139	559.789793284991	372
0	1144	561.177060143239	373
0	1145	562.388541008727	374
0	1150	564.155807623788	375
0	1152	565.247468575518	376
0	1154	566.784693894125	377
0	1162	568.025043539851	378
0	1166	569.386394245698	379
0	1174	570.529657212932	380
0	1178	571.750484981954	381
0	1179	572.921295957554	382
0	1181	574.565439341038	383
0	1182	576.168283308072	384
0	1186	577.468813726826	385
0	1187	579.108359917913	386
0	1188	580.839170860507	387
0	1194	582.463769624856	388
0	1201	584.068353738085	389
0	1205	585.348691658265	390
0	1206	586.924555615204	391
0	1210	588.321089536798	392
0	1212	589.892903697592	393
0	1217	591.653468821346	394
0	1223	593.423151972852	395
0	1225	594.838358691809	396
0	1226	596.078838788587	397
0	1233	597.669806815367	398
0	1234	599.190508364383	399
0	1236	600.329333794918	400
0	1243	601.806119468678	401
0	1249	602.962530841967	402
0	1253	604.014393330701	403
0	1256	605.848907126729	404
0	1260	607.357384641804	405
0	1262	608.58750392139	406
0	1268	609.95655765283	407
0	1272	611.9321880838	408
0	1281	613.782171228584	409
0	1282	615.555523153544	410
0	1283	617.37620270826	411
0	1287	618.78324447983	412
0	1288	620.040545553817	413
0	1293	621.955957954433	414
0	1294	623.299089930868	415
0	1296	624.5075223317	416
0	1297	625.509699737337	417
0	1300	627.352231417699	418
0	1306	628.500527457949	419
0	1307	630.061731481375	420
0	1308	631.093581595607	421
0	1314	632.841544268569	422
0	1323	634.055687131742	423
0	1324	635.916978315134	424
0	1326	637.683443610939	425
0	1329	639.351151328451	426
0	1331	640.888798782985	427
0	1335	642.072853275259	428
0	1340	643.616625286323	429
0	1343	644.918693927499	430
0	1347	646.557673873064	431
0	1349	647.767883874626	432
0	1351	649.038049666128	433
0	1353	650.158745994708	434
0	1357	651.77393774773	435
0	1359	652.950604627989	436
0	1360	654.321326069683	437
0	1364	655.442767794626	438
0	1365	656.758770096731	439
0	1366	658.508149068952	440
0	1369	660.187967376234	441
0	1370	661.3618325241	442
0	1372	663.16888232544	443
0	1373	665.049453528048	444
0	1381	666.597238616468	445
0	1383	667.873815490547	446
0	1386	669.322883339282	447
0	1387	671.286115398081	448
0	1388	673.053721431326	449
0	1392	674.954200171549	450
0	1398	676.892338941023	451
0	1400	678.231721504508	452
0	1408	679.440169959944	453
0	1409	680.474940843564	454
0	1410	681.893131198045	455
0	1415	683.624723902354	456
0	1422	685.069905170156	457
0	1423	686.180805908665	458
0	1428	687.309275656389	459
0	1429	688.378991157897	460
0	1430	690.342791636624	461
0	1432	691.967008547541	462
0	1434	693.242911036741	463
0	1440	694.957736912798	464
0	1442	696.594150537075	465
0	1444	697.920184119753	466
0	1447	699.31128895088	467
0	1448	700.860907524274	468
0	1450	701.909811675697	469
0	1454	703.277394824111	470
0	1458	705.251905569722	471
0	1460	706.647646543252	472
0	1462	707.734218252971	473
0	1469	708.776156069626	474
0	1471	710.198229942153	475
0	1472	711.469571900003	476
0	1479	713.219071304573	477
0	1480	714.377793078691	478
0	1484	715.989848688625	479
0	1488	717.069201405075	480
0	1491	718.798823446416	481
0	1496	719.910544123881	482
0	1497	721.856145130385	483
0	1498	723.047945314234	484
0	1505	724.592045681931	485
0	1507	725.958929867165	486
0	1509	727.698474117236	487
0	1511	729.687753748994	488
0	1513	731.218933605736	489
0	1514	733.179836707802	490
0	1518	734.224675629202	491
0	1523	735.810136251531	492
0	1527	736.901734678221	493
0	1531	738.009731675644	494
0	1533	739.660932987376	495
0	1536	741.372358390975	496
0	1537	742.739006722027	497
0	1538	744.427357019072	498
0	1543	745.935340611178	499
0	1546	747.215796453792	500
0	1547	748.742668067252	501
0	1552	750.718099136751	502
0	1556	751.983752332542	503
0	1561	753.222388002936	504
0	1563	754.35390085602	505
0	1567	756.102647500958	506
0	1569	758.066519481044	507
0	1571	759.335290568096	508
0	1573	760.657863427799	509
0	1579	762.518314142858	510
0	1583	764.000614118443	511
0	1586	765.752674545773	512
0	1587	766.902577445057	513
0	1591	768.031967692456	514
0	1592	769.4353599147	515
0	1594	770.761645580322	516
0	1599	771.840616268019	517
0	1603	773.473416086665	518
0	1605	774.65529659405	519
0	1611	776.128256898985	520
0	1620	777.445843812923	521
0	1622	779.383216957708	522
0	1626	780.625307645097	523
0	1630	782.132846309019	524
0	1632	783.786281118316	525
0	1633	784.962408536493	526
0	1634	786.51027436895	527
0	1640	787.880395140878	528
0	1641	789.834215790645	529
0	1646	791.662770982279	530
0	1648	793.442087559408	531
0	1649	794.451385586668	532
0	1650	796.122582362645	533
0	1655	797.783970948455	534
0	1656	799.757705332625	535
0	1660	801.319643046155	536
0	1667	802.617663447892	537
0	1669	803.682049454802	538
0	1670	805.496656892269	539
0	1671	807.041886833876	540
0	1677	808.161492646586	541
0	1684	809.39837307032	542
0	1689	810.857451073041	543
0	1693	812.680711766852	544
0	1694	814.675609010186	545
0	1698	816.035970810249	546
0	1701	817.453996263591	547
0	1705	819.186813329726	548
0	1706	820.2759255617	549
0	1710	821.884759547103	550
0	1711	823.446500579042	551
0	1718	824.980984754774	552
0	1722	826.256254623092	553
0	1723	828.074045605405	554
0	1729	829.992420811119	555
0	1731	831.760590027232	556
0	1736	832.947252626676	557
0	1737	834.283365750365	558
0	1739	836.086970220698	559
0	1745	837.12211176558	560
0	1749	838.938945894507	561
0	1750	840.187518097838	562
0	1752	842.146881608437	563
0	1754	844.058695989805	564
0	1755	845.364104545586	565
0	1756	847.166145618217	566
0	1757	848.41069967477	567
0	1758	849.482529029161	568
0	1759	850.493283816757	569
0	1763	851.901878347066	570
0	1764	853.395062504248	571
0	1770	855.015852198615	572
0	1776	856.729775088751	573
0	1778	858.704474737081	574
0	1779	860.451739524636	575
0	1780	862.196140309242	576
0	1784	863.282968783197	577
0	1791	864.768732694355	578
0	1793	865.853858503658	579
0	1800	867.259819952683	580
0	1804	868.964559770567	581
0	1805	870.177727603499	582
0	1811	871.387348987075	583
0	1812	873.000639468577	584
0	1814	874.019678628451	585
0	1815	875.973507263611	586
0	1817	877.808245650406	587
0	1821	879.524839858205	588
0	1825	881.023629811971	589
0	1828	882.843249176542	590
0	1831	884.402745884291	591
0	1835	886.229316236598	592
0	1841	887.439777395369	593
0	1842	888.651241063753	594
0	1845	890.541994282424	595
0	1848	891.746301059292	596
0	1855	893.609255753837	597
0	1860	895.534654530843	598
0	1864	896.566200044153	599
0	1865	897.807220842603	600
0	1867	899.306330196007	601
0	1868	900.957502410428	602
0	1870	902.75612113104	603
0	1871	903.964323913826	604
0	1872	905.753964964448	605
0	1873	906.928377944891	606
0	1874	908.268026819135	607
0	1878	910.166902288477	608
0	1879	911.458672629352	609
0	1883	912.536990217082	610
0	1886	913.972331919158	611
0	1887	915.726764578289	612
0	1890	917.504059424773	613
0	1894	919.037261969326	614
0	1895	920.115490014115	615
0	1899	921.688242060979	616
0	1903	923.354791442081	617
0	1906	925.044418834997	618
0	1910	926.54942734112	619
0	1912	927.622641173107	620
0	1913	928.815277369376	621
0	1919	930.625772721283	622
0	1920	932.62097964311	623
0	1922	934.083953379104	624
0	1928	935.472357853698	625
0	1931	936.611331846249	626
0	1939	938.296359087956	627
0	1940	940.215267270022	628
0	1941	941.979025789686	629
0	1944	943.335044769953	630
0	1945	944.384645956253	631
0	1952	946.039872091181	632
0	1958	948.030465692665	633
0	1959	949.809076754294	634
0	1960	951.581998154672	635
0	1962	953.434671770932	636
0	1963	955.327831864508	637
0	1965	957.204123890877	638
0	1967	958.704749728704	639
0	1968	959.808572928107	640
0	1975	961.0500232658	641
0	1977	962.254514936742	642
0	1981	963.272874109133	643
0	1985	964.480339429726	644
0	1990	966.248360909441	645
0	1993	967.38681180185	646
0	1994	969.245851655177	647
0	2000	970.457703341649	648
0	2004	972.107500572841	649
0	2008	973.40298112986	650
0	2014	975.19018267739	651
0	2018	977.164015235532	652
0	2019	978.82408953613	653
0	2032	980.02226292264	654
0	2037	981.66037839317	655
0	2040	983.54045301365	656
0	2044	985.402266356314	657
0	2045	986.74961896186	658
0	2049	987.945967695129	659
0	2052	989.79789223118	660
0	2058	991.746258075035	661
0	2060	992.812503633939	662
0	2063	994.644890284783	663
0	2070	996.534009905916	664
0	2071	997.903892279754	665
0	2073	999.506179006689	666
1	2	0.398545696514	1
1	7	4.262235498719	2
1	10	5.165546140573	3
1	14	6.302937317621	4
1	21	11.16664148318	5
1	30	16.474063787497	6
1	40	22.75816562013	7
1	44	26.286538116461	8
1	50	27.452632170883	9
1	56	31.967406697401	10
1	60	33.912079276002	11
1	64	37.053317958791	12
1	74	41.155208558775	13
1	82	47.480336835992	14
1	87	49.953333793804	15
1	92	51.480543416645	16
1	97	54.566393369002	17
1	103	55.633982412395	18
1	106	56.685083863042	19
1	119	63.544851404046	20
1	125	66.685891569137	21
1	130	69.732225334906	22
1	134	71.447457927713	23
1	141	77.396981988922	24
1	147	78.81995743646	25
1	155	85.017853900237	26
1	159	86.350296299065	27
1	163	89.256722306368	28
1	167	92.742922449132	29
1	172	94.443951844081	30
1	182	102.106562341698	31
1	188	106.244229067993	32
1	195	107.297757514616	33
1	202	110.128683026642	34
1	206	111.789644504913	35
1	210	113.385815755923	36
1	215	114.654288163637	37
1	219	115.713629391408	38
1	222	117.486310863361	39
1	226	120.399037818447	40
1	235	122.519855784456	41
1	246	125.279919148727	42
1	253	128.273191502653	43
1	262	132.871168838958	44
1	268	135.927368944236	45
1	272	137.064734900997	46
1	276	138.598802359567	47
1	281	140.122921687604	48
1	289	141.906423251516	49
1	293	143.227631453452	50
1	299	146.520755170012	51
1	304	149.818941775373	52
1	309	152.681608512561	53
1	314	154.501471531237	54
1	318	156.074155902466	55
1	330	164.27263417832	56
1	334	165.359955601522	57
1	340	166.494633877349	58
1	343	167.617527466921	59
1	346	168.941129921541	60
1	355	171.904723029559	61
1	359	173.071871725602	62
1	363	174.919104382502	63
1	380	177.99433460734	64
1	386	183.160398204489	65
1	390	184.679639471342	66
1	395	187.349184213367	67
1	399	190.617166052646	68
1	407	197.008844154404	69
1	413	201.103988325101	70
1	419	205.676090582482	71
1	426	211.443887107904	72
1	431	213.410621292199	73
1	434	215.004703254752	74
1	441	217.253120618932	75
1	459	224.718702887599	76
1	463	227.491991389172	77
1	467	228.763373417188	78
1	472	232.44728904568	79
1	482	238.406720519094	80
1	489	242.361697652356	81
1	493	244.042800428181	82
1	501	249.453868385321	83
1	512	250.561081046993	84
1	516	251.752745226452	85
1	522	253.181419498031	86
1	526	254.338252796796	87
1	531	257.396598080418	88
1	539	260.967863756316	89
1	544	262.893750079661	90
1	553	269.305317536276	91
1	558	271.923033754576	92
1	561	273.707702181495	93
1	568	277.377652731288	94
1	575	280.429925157807	95
1	584	285.898779740866	96
1	587	287.706303049066	97
1	594	290.798918192937	98
1	604	295.162128234893	99
1	608	296.60113098323	100
1	619	298.625106673469	101
1	625	300.055003392795	102
1	629	301.356507259811	103
1	636	307.039435345487	104
1	639	308.613591455271	105
1	643	310.310714587349	106
1	653	313.777160742105	107
1	657	315.240657584736	108
1	662	316.951311456923	109
1	675	326.647943751454	110
1	679	328.142955558574	111
1	685	329.931680712201	112
1	690	331.704847002985	113
1	695	333.135766317522	114
1	701	334.638138503301	115
1	705	336.569578225095	116
1	710	337.680993735312	117
1	717	341.709062273891	118
1	722	343.347363011222	119
1	732	348.965371985973	120
1	738	349.964428767648	121
1	743	351.331405103199	122
1	751	356.136984457496	123
1	763	363.339372027183	124
1	771	369.634842549431	125
1	774	371.158366337301	126
1	781	372.870134382259	127
1	787	376.161960335258	128
1	793	381.040828419253	129
1	799	382.208780540566	130
1	806	383.891083639032	131
1	812	385.814390114977	132
1	817	387.657967364032	133
1	824	392.600996321694	134
1	829	394.345381581239	135
1	840	400.406621868369	136
1	846	404.142704871759	137
1	856	410.520863169552	138
1	862	411.753686118479	139
1	866	413.498691089257	140
1	872	416.067223297781	141
1	877	418.775645694875	142
1	886	425.016587559822	143
1	892	426.804622086214	144
1	898	429.802805410006	145
1	904	430.787725123022	146
1	908	432.63749566707	147
1	911	434.511098399762	148
1	915	436.10286116942	149
1	918	437.951527785374	150
1	922	439.649973567921	151
1	935	452.812979333328	152
1	941	457.353324351548	153
1	947	460.864208683271	154
1	954	464.142431427557	155
1	959	467.230243273775	156
1	967	473.914042931013	157
1	970	475.489767539786	158
1	977	478.558191015886	159
1	982	480.05895306786	160
1	993	484.819648808032	161
1	997	486.693669699147	162
1	1001	487.849256817158	163
1	1009	491.403583277553	164
1	1013	493.230331669343	165
1	1018	497.691733213456	166
1	1022	499.427110214604	167
1	1034	509.917016081983	168
1	1038	511.320377931692	169
1	1045	513.948029550871	170
1	1050	515.270551789169	171
1	1055	518.053577292034	172
1	1066	520.982659263551	173
1	1076	527.141431565731	174
1	1088	534.074669162576	175
1	1097	540.527174521526	176
1	1101	542.453651664374	177
1	1111	549.306955491147	178
1	1118	554.183676387202	179
1	1124	555.42759270549	180
1	1128	557.321743336655	181
1	1134	558.847183075637	182
1	1140	559.990250846091	183
1	1146	562.418212695547	184
1	1155	566.961862275532	185
1	1163	568.130194318245	186
1	1167	569.59364738766	187
1	1175	570.588709939097	188
1	1183	576.268149674037	189
1	1189	580.935172032969	190
1	1195	582.661506273887	191
1	1202	584.199864010814	192
1	1207	586.982832699768	193
1	1213	590.013801596822	194
1	1218	591.841594634894	195
1	1227	596.266884865406	196
1	1237	600.396689197403	197
1	1244	601.936995527062	198
1	1250	603.153714181092	199
1	1254	604.074216318662	200
1	1257	605.985039453307	201
1	1263	608.628371051248	202
1	1269	610.015163807469	203
1	1273	612.082015108027	204
1	1284	617.484849705266	205
1	1289	620.115536007174	206
1	1298	625.668435601732	207
1	1301	627.404994520222	208
1	1309	631.2485126782	209
1	1315	632.943147041078	210
1	1327	637.722430548191	211
1	1332	641.008167003881	212
1	1336	642.163826604885	213
1	1341	643.64807416112	214
1	1344	644.968135850076	215
1	1354	650.307071054092	216
1	1361	654.412275999712	217
1	1367	658.534529439188	218
1	1374	665.214322288206	219
1	1384	668.083681371733	220
1	1389	673.091259074083	221
1	1393	675.016436676886	222
1	1401	678.321817541051	223
1	1411	681.92860717536	224
1	1416	683.724642100758	225
1	1424	686.342499108552	226
1	1435	693.398930045189	227
1	1445	698.002148296409	228
1	1451	702.045523007332	229
1	1455	703.471798556947	230
1	1463	707.856112578846	231
1	1473	711.503191788442	232
1	1481	714.577995916419	233
1	1485	716.150073309378	234
1	1489	717.178154619782	235
1	1492	718.92522099512	236
1	1499	723.174987346474	237
1	1515	733.218189307109	238
1	1519	734.425426138691	239
1	1524	735.958442421674	240
1	1528	736.952790852515	241
1	1534	739.6847370389	242
1	1539	744.634711585708	243
1	1544	746.117572345829	244
1	1548	748.840805796073	245
1	1553	750.753110538985	246
1	1557	752.013205851517	247
1	1564	754.487179184757	248
1	1574	760.761703364845	249
1	1580	762.645587396242	250
1	1584	764.209835696937	251
1	1588	767.053104979004	252
1	1595	770.907362622117	253
1	1600	771.904184282217	254
1	1606	774.865021604934	255
1	1612	776.305151660702	256
1	1623	779.410914730336	257
1	1627	780.668622667419	258
1	1635	786.586316578832	259
1	1642	789.928251330633	260
1	1651	796.271978377548	261
1	1657	799.935537421822	262
1	1661	801.48262187453	263
1	1672	807.172677245669	264
1	1678	808.360227679785	265
1	1685	809.522552801015	266
1	1690	810.939750488603	267
1	1695	814.72573673907	268
1	1699	816.18343849432	269
1	1702	817.586477578815	270
1	1707	820.397515073142	271
1	1712	823.481196664607	272
1	1719	825.12311117847	273
1	1724	828.147245528569	274
1	1732	831.921397040464	275
1	1740	836.292690862881	276
1	1746	837.186068032406	277
1	1760	850.607456632784	278
1	1765	853.519759678424	279
1	1771	855.108836367433	280
1	1781	862.355567606022	281
1	1785	863.46969544759	282
1	1794	865.91252190664	283
1	1801	867.362349913894	284
1	1806	870.250990237404	285
1	1818	877.848864190112	286
1	1822	879.633210672338	287
1	1826	881.20808430175	288
1	1829	882.913063089851	289
1	1832	884.515673050922	290
1	1836	886.31211872295	291
1	1843	888.834973934673	292
1	1846	890.58788727605	293
1	1849	891.792621322067	294
1	1856	893.677913790978	295
1	1861	895.563612139141	296
1	1875	908.292517027153	297
1	1880	911.53783268348	298
1	1884	912.687227036694	299
1	1888	915.815171600488	300
1	1891	917.686676420558	301
1	1896	920.270172459576	302
1	1900	921.723285909443	303
1	1904	923.473035311168	304
1	1907	925.074144420959	305
1	1914	928.8406627595	306
1	1923	934.151784937512	307
1	1929	935.50086381502	308
1	1932	936.655732276233	309
1	1942	942.166465630681	310
1	1946	944.526598675716	311
1	1953	946.065129923668	312
1	1969	960.000764538641	313
1	1978	962.4629716432	314
1	1982	963.42818617608	315
1	1986	964.520490661781	316
1	1991	966.356217352365	317
1	1995	969.3286967633	318
1	2001	970.655035473973	319
1	2005	972.174092518723	320
1	2009	973.471669310919	321
1	2015	975.227071149614	322
1	2020	978.929761073763	323
1	2033	980.093782616561	324
1	2038	981.696070649684	325
1	2041	983.741290873771	326
1	2046	986.869954057119	327
1	2050	987.976576436835	328
1	2053	989.95086165996	329
1	2061	992.923010112906	330
1	2064	994.81874405596	331
1	2074	999.657215886871	332
2	2	0.398545696514	1
2	7	4.262235498719	2
2	10	5.165546140573	3
2	14	6.302937317621	4
2	21	11.16664148318	5
2	30	16.474063787497	6
2	40	22.75816562013	7
2	44	26.286538116461	8
2	50	27.452632170883	9
2	56	31.967406697401	10
2	60	33.912079276002	11
2	64	37.053317958791	12
2	74	41.155208558775	13
2	82	47.480336835992	14
2	87	49.953333793804	15
2	92	51.480543416645	16
2	97	54.566393369002	17
2	103	55.633982412395	18
2	106	56.685083863042	19
2	119	63.544851404046	20
2	125	66.685891569137	21
2	130	69.732225334906	22
2	134	71.447457927713	23
2	141	77.396981988922	24
2	147	78.81995743646	25
2	155	85.017853900237	26
2	159	86.350296299065	27
2	163	89.256722306368	28
2	167	92.742922449132	29
2	172	94.443951844081	30
2	182	102.106562341698	31
2	188	106.244229067993	32
2	195	107.297757514616	33
2	202	110.128683026642	34
2	206	111.789644504913	35
2	210	113.385815755923	36
2	215	114.654288163637	37
2	219	115.713629391408	38
2	222	117.486310863361	39
2	226	120.399037818447	40
2	235	122.519855784456	41
2	246	125.279919148727	42
2	253	128.273191502653	43
2	262	132.871168838958	44
2	268	135.927368944236	45
2	272	137.064734900997	46
2	276	138.598802359567	47
2	281	140.122921687604	48
2	289	141.906423251516	49
2	293	143.227631453452	50
2	299	146.520755170012	51
2	304	149.818941775373	52
2	309	152.681608512561	53
2	314	154.501471531237	54
2	318	156.074155902466	55
2	330	164.27263417832	56
2	334	165.359955601522	57
2	340	166.494633877349	58
2	343	167.617527466921	59