file 338620 1697045984                                          
version 3
run General-0-20231011-19:08:56-17453
attr configname General
attr datetime 20231011-19:08:56
attr datetimef 20231011-190856
attr experiment General
attr inifile omnetpp.ini
attr iterationvars ""
attr iterationvarsd ""
attr iterationvarsf ""
attr measurement ""
attr network Multihop
attr processid 17453
attr repetition 0
attr replication #0
attr resultdir results
attr runnumber 0
attr seedset 0
config network Multihop
config Multihop.node[*].transmissionTime "uniform(1s, 2s)"
config Multihop.node[*].delayTime "uniform(0.01s, 0.2s)"
config Multihop.node[*].lossProbability 0.2
config record-eventlog true
config sim-time-limit 240s

vector 0 Multihop.node[0] txVector ETV
vector 1 Multihop.node[2] rxVector ETV
vector 2 Multihop.node[2] txVector ETV
vector 3 Multihop.node[4] rxVector ETV
vector 4 Multihop.node[4] txVector ETV
vector 5 Multihop.node[6] rxVector ETV
vector 6 Multihop.node[6] txVector ETV
vector 7 Multihop.node[7] rxVector ETV
vector 8 Multihop.node[1] rxVector ETV
vector 9 Multihop.node[1] txVector ETV
vector 10 Multihop.node[3] rxVector ETV
vector 11 Multihop.node[3] txVector ETV
vector 12 Multihop.node[5] rxVector ETV
vector 13 Multihop.node[5] txVector ETV
0	1198 226 0 30 0 0.871549580209 11 1 11 66 506
1	1424 109 2 28 0.143790018797 0.852597650703 5 1 5 15 55
2	1533 109 2 28 0.143790018797 0.852597650703 5 1 5 15 55
3	1642 64 3 29 0.159300503664 0.863218803608 3 1 3 6 14
4	1706 64 3 29 0.159300503664 0.863218803608 3 1 3 6 14
5	1770 21 4 4 0.174151785301 0.174151785301 1 1 1 1 1
6	1791 21 4 4 0.174151785301 0.174151785301 1 1 1 1 1
7	1812 43 5 18 0.206387029521 0.463713930433 2 1 2 3 5
8	1855 65 7 31 0.253409506035 0.872927117677 3 1 3 6 14
9	1920 65 7 31 0.253409506035 0.872927117677 3 1 3 6 14
10	1985 23 14 14 0.418850697734 0.418850697734 1 1 1 1 1
11	2008 23 14 14 0.418850697734 0.418850697734 1 1 1 1 1
12	2031 23 16 16 0.444990718483 0.444990718483 1 1 1 1 1
13	2054 23 16 16 0.444990718483 0.444990718483 1 1 1 1 1
0	2077 62734 40 8788 1.008970776212 239.862557391176 2254 12 2265 2566179 3875884859
1	64811 20131 45 8789 1.123763441763 239.862981299505 740 6 745 277870 138108790
2	84942 20131 45 8789 1.123763441763 239.862981299505 740 6 745 277870 138108790
3	105073 36938 35 8792 0.903167760521 239.901674026305 1343 4 1346 906525 813762647
4	142011 36938 35 8792 0.903167760521 239.901674026305 1343 4 1346 906525 813762647
5	178949 20031 32 8794 0.883807144923 239.915983182851 737 2 738 272690 134254868
6	198980 20031 32 8794 0.883807144923 239.915983182851 737 2 738 272690 134254868
7	219011 15588 43 8796 1.038864261351 239.92716194115 576 3 578 167328 64533984
8	234599 33162 38 8790 0.990050128571 239.8840880301 1211 4 1214 737499 597133201
9	267761 33162 38 8790 0.990050128571 239.8840880301 1211 4 1214 737499 597133201
10	300923 13427 33 8784 0.884307404561 239.77042621712 479 2 480 115439 36979279
11	314350 13427 33 8784 0.884307404561 239.77042621712 479 2 480 115439 36979279
12	327777 5421 42 8785 1.025048702917 239.784906898568 196 2 197 19502 2567894
13	333198 5421 42 8785 1.025048702917 239.784906898568 196 2 197 19502 2567894

