version 3
run General-0-20230921-14:28:51-5969
attr configname General
attr datetime 20230921-14:28:51
attr datetimef 20230921-142851
attr experiment General
attr inifile omnetpp.ini
attr iterationvars ""
attr iterationvarsd ""
attr iterationvarsf ""
attr measurement ""
attr network Tictoc1
attr processid 5969
attr repetition 0
attr replication #0
attr resultdir results
attr runnumber 0
attr seedset 0
config network Tictoc1
config Tictoc1.tic.delayTime exponential(1s)
config Tictoc1.toc.delayTime exponential(0.1s)
config Tictoc1.*.lossProbability 0.2
config record-eventlog true
config sim-time-limit 100s

vector 0 Tictoc1.tic transmissionSignal:vector ETV
attr recordingmode vector
attr source transmissionSignal
attr title tx_t
vector 1 Tictoc1.toc receptionSignal:vector ETV
attr recordingmode vector
attr source receptionSignal
attr title rx_t
vector 2 Tictoc1.toc transmissionSignal:vector ETV
attr recordingmode vector
attr source transmissionSignal
attr title tx_t
vector 3 Tictoc1.tic receptionSignal:vector ETV
attr recordingmode vector
attr source receptionSignal
attr title rx_t
0	1	0.548813502304	0
0	5	2.734010790184	1
0	9	3.916366463754	2
0	13	5.148477738814	3
0	17	5.972509752069	4
0	21	6.453246863366	5
0	25	7.168684582398	6
0	29	9.197785394485	7
0	33	10.302606504107	8
0	37	12.570801176967	9
0	39	13.570801176967	9
0	43	14.824529787887	10
0	45	15.824529787887	10
0	49	19.353448482907	11
0	53	21.608885826215	12
0	57	22.835117185807	13
0	61	23.815446852923	14
0	65	25.303039392032	15
0	67	26.303039392032	15
0	71	27.477503774509	16
0	73	28.477503774509	16
0	77	30.388310502402	17
0	81	31.135070838693	18
0	85	31.572002155938	19
0	89	32.514613597583	20
0	93	32.943925095436	21
0	95	33.943925095436	21
0	99	34.402199678789	22
0	103	35.586891849364	23
0	107	38.403596725706	24
0	111	39.108889828439	25
0	115	41.692694130807	26
0	119	41.965265543851	27
0	123	43.333990922094	28
0	127	43.788940234779	29
0	131	45.391785793413	30
0	135	46.137494009615	31
0	139	46.461119945381	32
0	143	51.216203892074	33
0	147	52.484793816242	34
0	151	52.96150928621	35
0	155	54.139299411345	36
0	159	55.020747460044	37
0	163	56.225639234963	38
0	165	57.225639234963	38
0	169	58.560503077475	39
0	173	58.947370931064	40
0	177	62.156448882567	41
0	181	64.185407478372	42
0	183	65.185407478372	42
0	185	66.185407478372	42
0	189	67.687203736054	43
0	191	68.687203736054	43
0	195	71.367428182804	44
0	199	75.400613826641	45
0	201	76.400613826641	45
0	205	78.004853787457	46
0	207	79.004853787457	46
0	209	80.004853787457	46
0	213	84.129664934398	47
0	215	85.129664934398	47
0	219	86.0204288277	48
0	221	87.0204288277	48
0	225	89.382936119588	49
0	229	89.899624699379	50
0	233	91.050387168152	51
0	237	91.759126060501	52
0	241	94.518784312523	53
0	243	95.518784312523	53
0	247	95.89134435897	54
0	251	96.507438614622	55
0	253	97.507438614622	55
0	257	98.033502093283	56
1	2	0.648813502304	1
1	6	2.834010790184	2
1	10	4.016366463754	3
1	14	5.248477738814	4
1	18	6.072509752069	5
1	22	6.553246863366	6
1	26	7.268684582398	7
1	30	9.297785394485	8
1	34	10.402606504107	9
1	40	13.670801176967	10
1	46	15.924529787887	11
1	50	19.453448482907	12
1	54	21.708885826215	13
1	58	22.935117185807	14
1	62	23.915446852923	15
1	68	26.403039392032	16
1	74	28.577503774509	17
1	78	30.488310502402	18
1	82	31.235070838693	19
1	86	31.672002155938	20
1	90	32.614613597583	21
1	96	34.043925095436	22
1	100	34.502199678789	23
1	104	35.686891849364	24
1	108	38.503596725706	25
1	112	39.208889828439	26
1	116	41.792694130807	27
1	120	42.065265543851	28
1	124	43.433990922094	29
1	128	43.888940234779	30
1	132	45.491785793413	31
1	136	46.237494009615	32
1	140	46.561119945381	33
1	144	51.316203892074	34
1	148	52.584793816242	35
1	152	53.06150928621	36
1	156	54.239299411345	37
1	160	55.120747460044	38
1	166	57.325639234963	39
1	170	58.660503077475	40
1	174	59.047370931064	41
1	178	62.256448882567	42
1	186	66.285407478372	43
1	192	68.787203736054	44
1	196	71.467428182804	45
1	202	76.500613826641	46
1	210	80.104853787457	47
1	216	85.229664934398	48
1	222	87.1204288277	49
1	226	89.482936119588	50
1	230	89.999624699379	51
1	234	91.150387168152	52
1	238	91.859126060501	53
1	244	95.618784312523	54
1	248	95.99134435897	55
1	254	97.607438614622	56
1	258	98.133502093283	57
2	3	0.774406578109	1
2	7	3.029165323772	2
2	11	4.071471312421	3
2	15	5.296990555186	4
2	19	6.294862194273	5
2	23	6.58508247745	6
2	27	7.42557419416	7
2	31	9.363173651207	8
2	35	10.662431912692	9
2	41	13.679917279579	10
2	47	16.103278554231	11
2	51	19.468571568273	12
2	55	22.093408013129	13
2	59	23.096517393296	14
2	63	24.067100450322	15
2	69	26.505182579467	16
2	75	28.866945822308	17
2	79	30.499505118465	18
2	83	31.265798873908	19
2	87	31.8055311744	20
2	91	32.698647068144	21
2	97	34.140063189343	22
2	101	34.527343871996	23
2	105	35.974683351492	24
2	109	38.563371333388	25
2	113	39.266343069113	26
2	117	41.803150253385	27
2	121	42.175156790606	28
2	125	43.452733528696	29
2	129	43.902743103622	30
2	133	45.58539194939	31
2	137	46.321936788968	32
2	141	46.661707045898	33
2	145	51.32696740289	34
2	149	52.685595740784	35
2	153	53.167383557719	36
2	157	54.292805879053	37
2	161	55.148775160892	38
2	167	57.337334775942	39
2	171	58.698658661812	40
2	175	59.069258990715	41
2	179	62.365075820655	42
2	187	66.4673893703	43
2	193	69.162106882012	44
2	197	71.538686542137	45
2	203	76.560608515305	46
2	211	80.138094811553	47
2	217	85.264782543336	48
2	223	87.158698922586	49
2	227	89.733327297897	50
2	231	90.117543652086	51
2	235	91.350711220403	52
2	239	91.933201955546	53
2	245	95.70457387663	54
2	249	96.023878400523	55
2	255	97.792171379722	56
2	259	98.259495474294	57
3	4	0.874406578109	1
3	8	3.129165323772	2
3	12	4.171471312421	3
3	16	5.396990555186	4
3	20	6.394862194273	5
3	24	6.68508247745	6
3	28	7.52557419416	7
3	32	9.463173651207	8
3	36	10.762431912692	9
3	42	13.779917279579	10
3	48	16.203278554231	11
3	52	19.568571568273	12
3	56	22.193408013129	13
3	60	23.196517393296	14
3	64	24.167100450322	15
3	70	26.605182579467	16
3	76	28.966945822308	17
3	80	30.599505118465	18
3	84	31.365798873908	19
3	88	31.9055311744	20
3	92	32.798647068144	21
3	98	34.240063189343	22
3	102	34.627343871996	23
3	106	36.074683351492	24
3	110	38.663371333388	25
3	114	39.366343069113	26
3	118	41.903150253385	27
3	122	42.275156790606	28
3	126	43.552733528696	29
3	130	44.002743103622	30
3	134	45.68539194939	31
3	138	46.421936788968	32
3	142	46.761707045898	33
3	146	51.42696740289	34
3	150	52.785595740784	35
3	154	53.267383557719	36
3	158	54.392805879053	37
3	162	55.248775160892	38
3	168	57.437334775942	39
3	172	58.798658661812	40
3	176	59.169258990715	41
3	180	62.465075820655	42
3	188	66.5673893703	43
3	194	69.262106882012	44
3	198	71.638686542137	45
3	204	76.660608515305	46
3	212	80.238094811553	47
3	218	85.364782543336	48
3	224	87.258698922586	49
3	228	89.833327297897	50
3	232	90.217543652086	51
3	236	91.450711220403	52
3	240	92.033201955546	53
3	246	95.80457387663	54
3	250	96.123878400523	55
3	256	97.892171379722	56
3	260	98.359495474294	57

