version 3
run General-0-20230913-16:38:29-6310
attr configname General
attr datetime 20230913-16:38:29
attr datetimef 20230913-163829
attr experiment General
attr inifile omnetpp.ini
attr iterationvars ""
attr iterationvarsd ""
attr iterationvarsf ""
attr measurement ""
attr network Tictoc1
attr processid 6310
attr repetition 0
attr replication #0
attr resultdir results
attr runnumber 0
attr seedset 0
config network Tictoc1
config Tictoc.tic.delayTime exponential(1s)
config Tictoc.toc.delayTime exponential(0.1s)
config Tictoc.*.lossProbability 0.2
config record-eventlog true
config sim-time-limit 100s

vector 0 Tictoc1.tic transmissionSignal:vector ETV
attr recordingmode vector
attr source transmissionSignal
attr title tx_t
vector 1 Tictoc1.toc receptionSignal:vector ETV
attr recordingmode vector
attr source receptionSignal
attr title rx_t
vector 2 Tictoc1.toc transmissionSignal:vector ETV
attr recordingmode vector
attr source transmissionSignal
attr title tx_t
vector 3 Tictoc1.tic receptionSignal:vector ETV
attr recordingmode vector
attr source receptionSignal
attr title rx_t
0	1	0.548813502304	0
0	3	1.548813502304	0
0	5	2.548813502304	0
0	7	3.548813502304	0
0	9	4.548813502304	0
0	11	5.548813502304	0
0	13	6.548813502304	0
0	15	7.548813502304	0
0	17	8.548813502304	0
0	19	9.548813502304	0
0	21	10.548813502304	0
0	23	11.548813502304	0
0	25	12.548813502304	0
0	27	13.548813502304	0
0	29	14.548813502304	0
0	31	15.548813502304	0
0	35	16.780649116388	1
0	37	17.780649116388	1
0	39	18.780649116388	1
0	41	19.780649116388	1
0	43	20.780649116388	1
0	45	21.780649116388	1
0	47	22.780649116388	1
0	49	23.780649116388	1
0	51	24.780649116388	1
0	55	26.161486042815	2
0	57	27.161486042815	2
0	59	28.161486042815	2
0	61	29.161486042815	2
0	63	30.161486042815	2
0	65	31.161486042815	2
0	67	32.161486042815	2
0	69	33.161486042815	2
0	73	34.512064468679	3
0	75	35.512064468679	3
0	77	36.512064468679	3
0	79	37.512064468679	3
0	83	38.776235385947	4
0	85	39.776235385947	4
0	87	40.776235385947	4
0	89	41.776235385947	4
0	91	42.776235385947	4
0	93	43.776235385947	4
0	95	44.776235385947	4
0	97	45.776235385947	4
0	99	46.776235385947	4
0	101	47.776235385947	4
0	103	48.776235385947	4
0	105	49.776235385947	4
0	107	50.776235385947	4
0	111	52.118371853956	5
0	113	53.118371853956	5
0	115	54.118371853956	5
0	117	55.118371853956	5
0	119	56.118371853956	5
0	121	57.118371853956	5
0	123	58.118371853956	5
0	125	59.118371853956	5
0	127	60.118371853956	5
0	129	61.118371853956	5
0	131	62.118371853956	5
0	133	63.118371853956	5
0	135	64.118371853956	5
0	137	65.118371853956	5
0	139	66.118371853956	5
0	141	67.118371853956	5
0	143	68.118371853956	5
0	145	69.118371853956	5
0	147	70.118371853956	5
0	149	71.118371853956	5
0	151	72.118371853956	5
0	155	73.551263191377	6
0	157	74.551263191377	6
0	159	75.551263191377	6
0	161	76.551263191377	6
0	163	77.551263191377	6
0	165	78.551263191377	6
0	169	79.870873971323	7
0	171	80.870873971323	7
0	173	81.870873971323	7
0	177	83.180765218078	8
0	179	84.180765218078	8
0	181	85.180765218078	8
0	183	86.180765218078	8
0	185	87.180765218078	8
0	187	88.180765218078	8
0	189	89.180765218078	8
0	191	90.180765218078	8
0	193	91.180765218078	8
0	195	92.180765218078	8
0	197	93.180765218078	8
0	199	94.180765218078	8
0	201	95.180765218078	8
0	203	96.180765218078	8
0	205	97.180765218078	8
0	207	98.180765218078	8
0	211	99.700059882283	9
1	32	15.648813502304	1
1	52	24.880649116388	2
1	70	33.261486042815	3
1	80	37.612064468679	4
1	108	50.876235385947	5
1	152	72.218371853956	6
1	166	78.651263191377	7
1	174	81.970873971323	8
1	208	98.280765218078	9
2	33	15.680649116388	0
2	53	25.061486042815	0
2	71	33.412064468679	0
2	81	37.676235385947	0
2	109	51.018371853956	0
2	153	72.451263191377	0
2	167	78.770873971323	0
2	175	82.080765218078	0
2	209	98.600059882283	0
3	34	15.780649116388	1
3	54	25.161486042815	2
3	72	33.512064468679	3
3	82	37.776235385947	4
3	110	51.118371853956	5
3	154	72.551263191377	6
3	168	78.870873971323	7
3	176	82.180765218078	8
3	210	98.700059882283	9

