version 3
run General-1-20231018-19:27:06-20109
attr configname General
attr datetime 20231018-19:27:06
attr datetimef 20231018-192706
attr experiment General
attr inifile omnetpp.ini
attr iterationvars ""
attr iterationvarsd ""
attr iterationvarsf ""
attr measurement ""
attr network Multihop
attr processid 20109
attr repetition 1
attr replication #1
attr resultdir results
attr runnumber 1
attr seedset 1
config network Multihop
config Multihop.node[*].transmissionTime "uniform(1s, 2s)"
config Multihop.node[*].delayTime "uniform(0.01s, 0.2s)"
config Multihop.node[0].lossProbability 0.5
config Multihop.node[1].lossProbability 0.6
config Multihop.node[2].lossProbability 0.7
config Multihop.node[3].lossProbability 0.1
config Multihop.node[4].lossProbability 0.2
config Multihop.node[5].lossProbability 0.1
config record-eventlog true
config sim-time-limit 240s
config repeat 5

vector 0 Multihop.node[0] txVector ETV
vector 1 Multihop.node[1] rxVector ETV
vector 2 Multihop.node[1] txVector ETV
vector 3 Multihop.node[2] rxVector ETV
vector 4 Multihop.node[2] txVector ETV
vector 5 Multihop.node[3] rxVector ETV
vector 6 Multihop.node[3] txVector ETV
vector 7 Multihop.node[4] rxVector ETV
vector 8 Multihop.node[4] txVector ETV
vector 9 Multihop.node[5] rxVector ETV
0	0	0	1
0	1	0.089234179703	2
0	3	2.021791540903	3
0	4	3.324124108653	4
0	6	4.560213084917	5
0	7	5.746473296198	6
0	8	7.092034021278	7
0	10	9.02757309389	8
0	13	10.340846606881	9
0	14	12.21896404389	10
0	15	13.246351639858	11
0	17	15.160313662259	12
0	18	16.719003489591	13
0	19	17.859390426544	14
0	25	19.637779662037	15
0	30	21.532386325882	16
0	32	22.630733162281	17
0	33	24.302387253963	18
0	35	25.835552543285	19
0	37	27.15106817719	20
0	39	28.98569385067	21
0	40	30.019865160691	22
0	43	32.008726248168	23
0	44	33.454860748839	24
0	46	34.558086760924	25
0	47	36.027325285715	26
0	50	37.320939428988	27
0	51	38.845738812001	28
0	52	39.929361817311	29
0	55	41.14098992839	30
0	56	42.725379052223	31
0	57	44.291291080765	32
0	60	45.438019652968	33
0	62	46.540354083409	34
0	63	48.490292217001	35
0	65	49.904471483199	36
0	66	51.669956590399	37
0	68	53.333751239233	38
0	70	55.278345997796	39
0	72	57.181747910685	40
0	73	58.629728093629	41
0	74	60.521863962176	42
0	76	61.919540796081	43
0	77	63.571839674261	44
0	79	64.919605533477	45
0	81	66.645603520913	46
0	84	68.269275727101	47
0	85	70.032508784324	48
0	86	71.389040501207	49
0	89	72.817131691497	50
0	91	74.438827411389	51
0	92	76.225778885303	52
0	94	77.675691018464	53
0	96	79.083827822586	54
0	97	80.846747889766	55
0	99	82.420427377918	56
0	100	84.193166521262	57
0	102	85.51981142338	58
0	105	87.405753518572	59
0	107	89.029113635538	60
0	108	90.298114685226	61
0	110	91.989011604456	62
0	112	93.161352115102	63
0	113	94.904116942199	64
0	115	96.600935104886	65
0	116	97.831297909027	66
0	118	99.585174102221	67
0	120	101.296698859079	68
0	121	102.46897721605	69
0	122	103.865290504299	70
0	123	104.972655812628	71
0	124	106.48246609082	72
0	125	107.584601323237	73
0	127	109.123432389344	74
0	129	110.965463282657	75
0	130	112.199085810338	76
0	131	113.290642250678	77
0	133	115.26023799635	78
0	136	116.278885286418	79
0	137	117.996276888414	80
0	139	119.384137533954	81
0	141	121.131259173504	82
0	143	122.267714400659	83
0	144	123.421052884659	84
0	145	125.35824321059	85
0	146	127.274653083761	86
0	147	129.056611546431	87
0	148	130.672940489253	88
0	151	132.232657468528	89
0	152	133.52701694041	90
0	154	135.095117403078	91
0	155	136.169086401002	92
0	156	137.321223558276	93
0	159	138.516653038445	94
0	162	140.363481837907	95
0	163	141.567839962081	96
0	168	143.396820859401	97
0	169	145.21069722122	98
0	171	146.779548658872	99
0	172	148.311375105171	100
0	174	149.891120328917	101
0	175	151.39990906755	102
0	178	153.145243498148	103
0	179	154.277510772809	104
0	180	156.041752385325	105
0	181	157.254486080143	106
0	183	158.464660092374	107
0	185	159.531196574798	108
0	186	160.626504386427	109
0	189	161.819938667236	110
0	192	163.744746635087	111
0	193	165.472758275341	112
0	196	167.24493630475	113
0	198	168.258887875244	114
0	199	169.987445271924	115
0	201	171.936461593142	116
0	203	173.493114782848	117
0	206	175.134680989549	118
0	207	176.301632582095	119
0	209	177.8511805014	120
0	211	179.769913937083	121
0	212	181.379120925326	122
0	214	182.553076590994	123
0	215	183.631596560474	124
0	216	185.324781758595	125
0	218	186.346306566732	126
0	220	188.173422035879	127
0	221	189.645505461494	128
0	222	190.750896711719	129
0	223	192.25397262152	130
0	224	194.139662482428	131
0	226	195.484399137205	132
0	229	197.066413316528	133
0	232	198.971805628507	134
0	234	200.770409216757	135
0	235	201.89693537506	136
0	236	203.846978682212	137
0	239	204.862511956019	138
0	240	206.111212155901	139
0	242	207.426456962133	140
0	244	209.004314178953	141
0	245	210.195574449029	142
0	247	211.807605629906	143
0	248	212.823478609675	144
0	249	213.87318962475	145
0	251	215.791791402853	146
0	252	217.659308857636	147
0	254	219.035889174442	148
0	256	220.640605275172	149
0	258	222.215316783057	150
0	261	223.500893060237	151
0	263	225.359206898257	152
0	266	227.057264147213	153
0	267	228.321467451405	154
0	269	229.772341386302	155
0	270	231.012559018916	156
0	271	232.035727749233	157
0	272	233.567395855793	158
0	273	234.697590573811	159
0	275	236.1278378506	160
0	278	237.805638739028	161
0	279	238.815638466393	162
1	11	9.21722005251	1
1	20	18.007029708368	2
1	26	19.912133508647	3
1	41	30.248430857518	4
1	48	36.155598014917	5
1	53	40.213565470837	6
1	58	44.517939361248	7
1	82	66.886742392942	8
1	87	71.642070287749	9
1	103	85.631522942522	10
1	134	115.440128212045	11
1	149	130.789780382036	12
1	157	137.461931078897	13
1	160	138.636156474494	14
1	164	141.864373722733	15
1	176	151.550882619866	16
1	187	160.763724357722	17
1	190	162.089471257393	18
1	194	165.682078234056	19
1	204	173.604635297893	20
1	227	195.661770227632	21
1	230	197.180951294183	22
1	237	204.016564739977	23
1	259	222.391377886191	24
1	264	225.619192868111	25
1	276	236.317842054364	26
2	11	9.21722005251	1
2	20	18.007029708368	2
2	26	19.912133508647	3
2	41	30.248430857518	4
2	48	36.155598014917	5
2	53	40.213565470837	6
2	58	44.517939361248	7
2	82	66.886742392942	8
2	87	71.642070287749	9
2	103	85.631522942522	10
2	134	115.440128212045	11
2	149	130.789780382036	12
2	157	137.461931078897	13
2	160	138.636156474494	14
2	164	141.864373722733	15
2	176	151.550882619866	16
2	187	160.763724357722	17
2	190	162.089471257393	18
2	194	165.682078234056	19
2	204	173.604635297893	20
2	227	195.661770227632	21
2	230	197.180951294183	22
2	237	204.016564739977	23
2	259	222.391377886191	24
2	264	225.619192868111	25
2	276	236.317842054364	26
3	21	18.253064105429	1
3	27	20.038291907987	2
3	165	142.004164087703	3
4	21	18.253064105429	1
4	27	20.038291907987	2
4	165	142.004164087703	3
5	22	18.515588031043	1
5	28	20.15571231699	2
5	166	142.117693565416	3
6	22	18.515588031043	1
6	28	20.15571231699	2
6	166	142.117693565416	3
7	23	18.643220184988	1
8	23	18.643220184988	1
9	24	18.851669169152	1

