version 3
run General-0-20231012-13:15:56-33747
attr configname General
attr datetime 20231012-13:15:56
attr datetimef 20231012-131556
attr experiment General
attr inifile omnetpp.ini
attr iterationvars ""
attr iterationvarsd ""
attr iterationvarsf ""
attr measurement ""
attr network Multihop
attr processid 33747
attr repetition 0
attr replication #0
attr resultdir results
attr runnumber 0
attr seedset 0
config network Multihop
config Multihop.node[*].transmissionTime "uniform(1s, 2s)"
config Multihop.node[*].delayTime "uniform(0.01s, 0.2s)"
config Multihop.node[0].lossProbability 0.5
config Multihop.node[1].lossProbability 0.4
config Multihop.node[2].lossProbability 0.35
config Multihop.node[3].lossProbability 0.25
config Multihop.node[4].lossProbability 0.2
config Multihop.node[5].lossProbability 0.1
config record-eventlog true
config sim-time-limit 240s
config repeat 5

vector 0 Multihop.node[0] txVector ETV
vector 1 Multihop.node[1] rxVector ETV
vector 2 Multihop.node[1] txVector ETV
vector 3 Multihop.node[2] rxVector ETV
vector 4 Multihop.node[2] txVector ETV
vector 5 Multihop.node[3] rxVector ETV
vector 6 Multihop.node[3] txVector ETV
vector 7 Multihop.node[4] rxVector ETV
vector 8 Multihop.node[4] txVector ETV
vector 9 Multihop.node[5] rxVector ETV
0	0	0	1
0	1	0.114274565438	2
0	7	1.958540309528	3
0	8	3.256074914783	4
0	10	5.219737678841	5
0	11	6.697402790496	6
0	17	8.226297712028	7
0	23	9.59453924939	8
0	29	11.056018612189	9
0	35	12.814634232623	10
0	36	14.031184589331	11
0	38	15.049974387352	12
0	40	16.662070109815	13
0	46	18.605818185097	14
0	47	19.666043651596	15
0	50	21.319183683794	16
0	51	22.448109982142	17
0	53	24.055940648846	18
0	54	25.626137424798	19
0	55	27.064738938191	20
0	57	29.023688207452	21
0	59	30.65874708451	22
0	61	32.240597416718	23
0	62	33.70690818953	24
0	63	34.951333777585	25
0	65	36.289341395094	26
0	67	37.606543139859	27
0	69	39.556114191261	28
0	71	40.569685833135	29
0	73	42.243345464186	30
0	79	44.12153893274	31
0	80	45.56324985421	32
0	81	47.542836584688	33
0	82	48.902281053669	34
0	83	50.383174589907	35
0	84	52.071835776164	36
0	85	53.952311669315	37
0	86	55.870547142184	38
0	87	57.087369275351	39
0	93	58.653970723811	40
0	94	60.583266921646	41
0	95	61.901835876589	42
0	96	63.569246252838	43
0	99	65.216420391414	44
0	100	66.399611754881	45
0	101	67.986124687901	46
0	104	69.151065148486	47
0	105	70.82888168779	48
0	109	72.532618968587	49
0	113	73.928717246817	50
0	119	75.608772819701	51
0	122	77.005278558542	52
0	128	78.887013918093	53
0	129	80.531004114613	54
0	130	81.954859158561	55
0	132	83.429726680113	56
0	133	84.731301496342	57
0	135	86.019292500174	58
0	136	87.637307927084	59
0	138	89.515760118213	60
0	139	90.814042446042	61
0	140	92.384007357598	62
0	141	93.974880120556	63
0	147	95.00850521431	64
0	148	96.10576514092	65
0	149	98.089807376337	66
0	153	99.896001368134	67
0	158	101.610242666515	68
0	159	103.118558116794	69
0	164	104.242378099194	70
0	165	105.275600485575	71
0	166	107.258175442299	72
0	169	108.711718122546	73
0	171	110.687239634643	74
0	177	111.698953716156	75
0	178	112.753291702202	76
0	179	113.953288227624	77
0	180	114.971810021742	78
0	181	116.765507724208	79
0	182	117.989432406916	80
0	186	119.933552157904	81
0	190	121.433578451701	82
0	195	122.700840985707	83
0	197	124.255083421783	84
0	198	125.467473923766	85
0	199	126.689917147231	86
0	200	127.908666515096	87
0	205	129.648217311666	88
0	206	130.704635646266	89
0	207	132.19247335226	90
0	208	134.073477910903	91
0	214	135.451229748155	92
0	215	136.904926587666	93
0	219	138.511971648621	94
0	220	140.175049852186	95
0	222	141.312270273061	96
0	223	143.070648924985	97
0	225	144.975073902241	98
0	231	146.299756874868	99
0	236	147.485392818067	100
0	238	149.216248620607	101
0	240	150.529941018045	102
0	242	152.001692593869	103
0	248	153.155386897342	104
0	253	155.01924249863	105
0	257	156.41530220241	106
0	258	157.580261073845	107
0	259	158.705094134739	108
0	260	160.42717479549	109
0	263	162.192500047922	110
0	267	163.275922482671	111
0	269	164.568070013379	112
0	270	166.245333320066	113
0	271	167.30837161264	114
0	272	168.864020849882	115
0	277	170.533937392129	116
0	278	172.046330857627	117
0	279	173.626777988231	118
0	282	175.503283230659	119
0	287	176.73498485617	120
0	290	178.233125084617	121
0	293	179.427467304121	122
0	295	181.289777084791	123
0	301	183.274809365232	124
0	302	184.703033192154	125
0	305	185.892881105958	126
0	306	187.873580779486	127
0	307	189.279701266975	128
0	309	191.252620757163	129
0	315	193.159176255182	130
0	317	195.085389187864	131
0	318	196.138816365345	132
0	320	197.152764763522	133
0	322	198.457346793802	134
0	324	199.707969513561	135
0	326	201.518393608581	136
0	327	202.938933070356	137
0	332	204.768535312571	138
0	334	206.245012516462	139
0	335	207.507130664381	140
0	336	208.963271228437	141
0	339	210.405286547801	142
0	340	211.78521349917	143
0	343	213.294555564949	144
0	349	214.501150170646	145
0	352	215.773972067588	146
0	353	217.553164038413	147
0	354	219.478327468342	148
0	355	221.193506217168	149
0	360	222.270462661122	150
0	362	223.91603290227	151
0	363	224.951395338473	152
0	369	226.507824764892	153
0	370	227.83350953141	154
0	371	228.980523422665	155
0	373	230.167654315547	156
0	375	231.711460269128	157
0	376	233.622004987977	158
0	380	235.080608944481	159
0	385	236.770633964639	160
0	388	238.010654238358	161
0	390	239.969820841288	162
1	2	0.360160544783	1
1	12	6.961714848524	2
1	18	8.340139207861	3
1	24	9.856712292365	4
1	30	11.345505706726	5
1	41	16.845503015645	6
1	48	19.902729326739	7
1	74	42.538872762578	8
1	88	57.304755159823	9
1	97	63.704287846619	10
1	102	68.099945122505	11
1	106	70.990183201833	12
1	110	72.752088862406	13
1	114	74.219739558573	14
1	120	75.797018646649	15
1	123	77.174790041646	16
1	142	94.194001919161	17
1	150	98.249272152764	18
1	154	100.072940583636	19
1	160	103.260259145204	20
1	167	107.439100685323	21
1	172	110.841080679548	22
1	183	118.165049225841	23
1	187	120.074844047639	24
1	191	121.721079112034	25
1	201	128.126885486149	26
1	209	134.36899474506	27
1	216	137.116876637315	28
1	226	145.196854154551	29
1	232	146.577971031081	30
1	243	152.151111908826	31
1	249	153.418827147689	32
1	254	155.263092608359	33
1	261	160.542960858984	34
1	264	162.34381564186	35
1	273	168.975776463206	36
1	280	173.886410997374	37
1	283	175.699765305926	38
1	291	178.504424359896	39
1	296	181.586324668303	40
1	303	184.869623138295	41
1	310	191.512506584221	42
1	328	203.154833139799	43
1	337	209.203094681875	44
1	341	211.929632182108	45
1	344	213.536985040894	46
1	350	214.61299092364	47
1	356	221.396761754341	48
1	364	225.143171801988	49
1	377	233.747769619471	50
1	381	235.271607061296	51
1	386	237.019599459563	52
2	2	0.360160544783	1
2	12	6.961714848524	2
2	18	8.340139207861	3
2	24	9.856712292365	4
2	30	11.345505706726	5
2	41	16.845503015645	6
2	48	19.902729326739	7
2	74	42.538872762578	8
2	88	57.304755159823	9
2	97	63.704287846619	10
2	102	68.099945122505	11
2	106	70.990183201833	12
2	110	72.752088862406	13
2	114	74.219739558573	14
2	120	75.797018646649	15
2	123	77.174790041646	16
2	142	94.194001919161	17
2	150	98.249272152764	18
2	154	100.072940583636	19
2	160	103.260259145204	20
2	167	107.439100685323	21
2	172	110.841080679548	22
2	183	118.165049225841	23
2	187	120.074844047639	24
2	191	121.721079112034	25
2	201	128.126885486149	26
2	209	134.36899474506	27
2	216	137.116876637315	28
2	226	145.196854154551	29
2	232	146.577971031081	30
2	243	152.151111908826	31
2	249	153.418827147689	32
2	254	155.263092608359	33
2	261	160.542960858984	34
2	264	162.34381564186	35
2	273	168.975776463206	36
2	280	173.886410997374	37
2	283	175.699765305926	38
2	291	178.504424359896	39
2	296	181.586324668303	40
2	303	184.869623138295	41
2	310	191.512506584221	42
2	328	203.154833139799	43
2	337	209.203094681875	44
2	341	211.929632182108	45
2	344	213.536985040894	46
2	350	214.61299092364	47
2	356	221.396761754341	48
2	364	225.143171801988	49
2	377	233.747769619471	50
2	381	235.271607061296	51
2	386	237.019599459563	52
3	3	0.633170212554	1
3	13	7.179643315638	2
3	19	8.631998687182	3
3	25	10.115012835739	4
3	31	11.475628151947	5
3	42	17.085048872236	6
3	75	42.745701393214	7
3	89	57.465179163133	8
3	107	71.154993723997	9
3	111	73.032336156373	10
3	115	74.415087127636	11
3	124	77.416371044034	12
3	143	94.488104654699	13
3	151	98.49301098402	14
3	155	100.37272151418	15
3	161	103.531380708391	16
3	173	111.019476510772	17
3	184	118.390617270683	18
3	188	120.1944143588	19
3	192	121.960106329484	20
3	202	128.330072658501	21
3	210	134.51311944378	22
3	217	137.36266905455	23
3	227	145.405599281075	24
3	233	146.869001446145	25
3	244	152.399895923127	26
3	250	153.551158200605	27
3	255	155.480522656821	28
3	265	162.558732211437	29
3	274	169.234955516159	30
3	284	175.990135882063	31
3	297	181.839502893176	32
3	311	191.76957557812	33
3	329	203.336849556575	34
3	345	213.80796735107	35
3	357	221.605340432387	36
3	365	225.283546546997	37
3	378	233.995361470336	38
3	382	235.514535251932	39
4	3	0.633170212554	1
4	13	7.179643315638	2
4	19	8.631998687182	3
4	25	10.115012835739	4
4	31	11.475628151947	5
4	42	17.085048872236	6
4	75	42.745701393214	7
4	89	57.465179163133	8
4	107	71.154993723997	9
4	111	73.032336156373	10
4	115	74.415087127636	11
4	124	77.416371044034	12
4	143	94.488104654699	13
4	151	98.49301098402	14
4	155	100.37272151418	15
4	161	103.531380708391	16
4	173	111.019476510772	17
4	184	118.390617270683	18
4	188	120.1944143588	19
4	192	121.960106329484	20
4	202	128.330072658501	21
4	210	134.51311944378	22
4	217	137.36266905455	23
4	227	145.405599281075	24
4	233	146.869001446145	25
4	244	152.399895923127	26
4	250	153.551158200605	27
4	255	155.480522656821	28
4	265	162.558732211437	29
4	274	169.234955516159	30
4	284	175.990135882063	31
4	297	181.839502893176	32
4	311	191.76957557812	33
4	329	203.336849556575	34
4	345	213.80796735107	35
4	357	221.605340432387	36
4	365	225.283546546997	37
4	378	233.995361470336	38
4	382	235.514535251932	39
5	4	0.904148042633	1
5	14	7.465506675951	2
5	20	8.768665334892	3
5	26	10.247484976253	4
5	32	11.675612232266	5
5	43	17.263355373627	6
5	76	42.866287184869	7
5	90	57.674596293188	8
5	116	74.711015603178	9
5	125	77.664169357505	10
5	144	94.659094131011	11
5	156	100.511116692067	12
5	162	103.794771310851	13
5	174	111.2681747175	14
5	193	122.234319803556	15
5	203	128.483281438047	16
5	211	134.627808402247	17
5	228	145.515609797644	18
5	234	147.109624217974	19
5	245	152.632686165782	20
5	251	153.759460231722	21
5	275	169.398484235964	22
5	285	176.278997646006	23
5	298	181.950272033233	24
5	312	191.942873157811	25
5	330	203.465193983298	26
5	346	214.047425586426	27
5	358	221.77363435145	28
5	366	225.420874126795	29
5	383	235.686802127479	30
6	4	0.904148042633	1
6	14	7.465506675951	2
6	20	8.768665334892	3
6	26	10.247484976253	4
6	32	11.675612232266	5
6	43	17.263355373627	6
6	76	42.866287184869	7
6	90	57.674596293188	8
6	116	74.711015603178	9
6	125	77.664169357505	10
6	144	94.659094131011	11
6	156	100.511116692067	12
6	162	103.794771310851	13
6	174	111.2681747175	14
6	193	122.234319803556	15
6	203	128.483281438047	16
6	211	134.627808402247	17
6	228	145.515609797644	18
6	234	147.109624217974	19
6	245	152.632686165782	20
6	251	153.759460231722	21
6	275	169.398484235964	22
6	285	176.278997646006	23
6	298	181.950272033233	24
6	312	191.942873157811	25
6	330	203.465193983298	26
6	346	214.047425586426	27
6	358	221.77363435145	28
6	366	225.420874126795	29
6	383	235.686802127479	30
7	5	1.132625144949	1
7	15	7.589003527106	2
7	21	9.043981912595	3
7	27	10.479069969481	4
7	33	11.821015377729	5
7	44	17.456391444633	6
7	77	43.06200743551	7
7	91	57.802444989326	8
7	117	74.84309396607	9
7	126	77.869420990289	10
7	145	94.811134040723	11
7	175	111.41078435623	12
7	194	122.486980210475	13
7	212	134.750585832101	14
7	229	145.68486323954	15
7	235	147.260570676748	16
7	246	152.783513505725	17
7	286	176.540846137092	18
7	299	182.111473126137	19
7	313	192.068282422366	20
7	347	214.191315383593	21
7	359	221.99336751176	22
7	367	225.654272102813	23
8	5	1.132625144949	1
8	15	7.589003527106	2
8	21	9.043981912595	3
8	27	10.479069969481	4
8	33	11.821015377729	5
8	44	17.456391444633	6
8	77	43.06200743551	7
8	91	57.802444989326	8
8	117	74.84309396607	9
8	126	77.869420990289	10
8	145	94.811134040723	11
8	175	111.41078435623	12
8	194	122.486980210475	13
8	212	134.750585832101	14
8	229	145.68486323954	15
8	235	147.260570676748	16
8	246	152.783513505725	17
8	286	176.540846137092	18
8	299	182.111473126137	19
8	313	192.068282422366	20
8	347	214.191315383593	21
8	359	221.99336751176	22
8	367	225.654272102813	23
9	6	1.315657669511	1
9	16	7.71555809353	2
9	22	9.243967440198	3
9	28	10.616307093726	4
9	34	12.071029831534	5
9	45	17.698941371763	6
9	78	43.175805093254	7
9	92	58.021874823408	8
9	118	75.098828469567	9
9	127	78.161076881843	10
9	146	94.947974182271	11
9	176	111.619781310804	12
9	196	122.780233265958	13
9	213	134.989670459494	14
9	230	145.875699031639	15
9	237	147.550571089722	16
9	247	152.928940567261	17
9	288	176.770631244846	18
9	300	182.299466633022	19
9	314	192.255658244235	20
9	348	214.314588596896	21
9	361	222.285659847112	22
9	368	225.866724586228	23

