version 3
run General-4-20231012-13:15:56-33747
attr configname General
attr datetime 20231012-13:15:56
attr datetimef 20231012-131556
attr experiment General
attr inifile omnetpp.ini
attr iterationvars ""
attr iterationvarsd ""
attr iterationvarsf ""
attr measurement ""
attr network Multihop
attr processid 33747
attr repetition 4
attr replication #4
attr resultdir results
attr runnumber 4
attr seedset 4
config network Multihop
config Multihop.node[*].transmissionTime "uniform(1s, 2s)"
config Multihop.node[*].delayTime "uniform(0.01s, 0.2s)"
config Multihop.node[0].lossProbability 0.5
config Multihop.node[1].lossProbability 0.4
config Multihop.node[2].lossProbability 0.35
config Multihop.node[3].lossProbability 0.25
config Multihop.node[4].lossProbability 0.2
config Multihop.node[5].lossProbability 0.1
config record-eventlog true
config sim-time-limit 240s
config repeat 5

vector 0 Multihop.node[0] txVector ETV
vector 1 Multihop.node[1] rxVector ETV
vector 2 Multihop.node[1] txVector ETV
vector 3 Multihop.node[2] rxVector ETV
vector 4 Multihop.node[2] txVector ETV
vector 5 Multihop.node[3] rxVector ETV
vector 6 Multihop.node[3] txVector ETV
vector 7 Multihop.node[4] rxVector ETV
vector 8 Multihop.node[4] txVector ETV
vector 9 Multihop.node[5] rxVector ETV
0	0	0	1
0	1	0.193735669288	2
0	7	1.366430994277	3
0	12	2.372661251263	4
0	13	3.945017743078	5
0	19	5.928418416451	6
0	20	6.972578470051	7
0	26	8.783640574585	8
0	27	10.224989107964	9
0	28	11.290698646722	10
0	34	12.458670830508	11
0	36	13.719642909398	12
0	37	14.877866316974	13
0	38	16.423068970829	14
0	39	17.947473054906	15
0	40	19.585083303662	16
0	41	20.986578746155	17
0	42	22.636383859363	18
0	43	24.033283862906	19
0	46	25.256316383524	20
0	52	26.607990095081	21
0	55	28.503491256774	22
0	57	29.694937664239	23
0	58	30.770644039536	24
0	59	32.456232242907	25
0	61	33.888054317019	26
0	67	35.304830623713	27
0	71	37.038271768639	28
0	72	38.635538375626	29
0	73	39.880992086061	30
0	74	41.613585538153	31
0	75	43.508236831442	32
0	78	44.608617258413	33
0	80	45.771488980312	34
0	82	47.721843640242	35
0	83	49.489601681397	36
0	84	50.538135821155	37
0	90	51.84514849276	38
0	91	53.631901638738	39
0	95	55.142145270405	40
0	96	56.62360521375	41
0	97	58.551013824221	42
0	99	59.90129903836	43
0	100	61.868978667695	44
0	101	63.18959431459	45
0	102	65.075391407514	46
0	104	66.512157697154	47
0	105	67.64908351532	48
0	106	68.761593850952	49
0	107	69.833877106587	50
0	109	71.81349336977	51
0	114	72.896677486988	52
0	116	73.955557578167	53
0	117	75.567379397264	54
0	118	76.691394018399	55
0	119	78.450923547771	56
0	123	80.206282941083	57
0	124	82.148868796573	58
0	125	83.614358473261	59
0	130	84.624785145204	60
0	133	86.208328676801	61
0	138	87.225046338206	62
0	145	88.953315774137	63
0	146	90.360937450472	64
0	147	92.142468573451	65
0	152	93.658240251634	66
0	153	95.067831640755	67
0	156	96.633176001412	68
0	157	97.767928607221	69
0	160	99.047160547617	70
0	161	100.876578495995	71
0	164	102.664237145957	72
0	165	104.108777807018	73
0	168	105.403410365496	74
0	169	106.725985345587	75
0	170	108.661276201408	76
0	174	110.258034089038	77
0	180	111.94781938304	78
0	182	113.099704985663	79
0	183	115.089821905752	80
0	184	116.973864292649	81
0	185	117.993806652415	82
0	186	119.096601892884	83
0	187	120.190682535448	84
0	188	121.456479861556	85
0	189	122.651427549232	86
0	192	124.59725584501	87
0	194	126.209068197678	88
0	199	127.943587253024	89
0	200	129.558949267878	90
0	201	130.754180425932	91
0	204	132.087636805759	92
0	207	133.252754920549	93
0	208	134.537999514179	94
0	214	135.87722441942	95
0	217	137.464858825705	96
0	218	138.976246111714	97
0	219	140.924571992983	98
0	222	142.186414214005	99
0	223	143.735219336502	100
0	224	145.335016826089	101
0	230	146.539328199733	102
0	236	148.49328417393	103
0	237	149.930307647834	104
0	240	151.722308226783	105
0	242	153.251380609503	106
0	243	154.376373178247	107
0	244	155.610153608178	108
0	245	156.993733617631	109
0	246	158.036632146607	110
0	247	159.875342847234	111
0	248	161.279153107353	112
0	251	162.63156102031	113
0	252	163.714268631223	114
0	255	165.665937223393	115
0	256	167.088593142494	116
0	259	168.179267706271	117
0	261	169.473710788335	118
0	263	170.875409876849	119
0	265	172.231031534882	120
0	266	173.874340061718	121
0	267	175.48444645844	122
0	270	176.891202284643	123
0	275	178.487705561487	124
0	278	179.556674995614	125
0	281	180.560547633251	126
0	282	181.924524954442	127
0	283	183.501888650624	128
0	289	185.459648402795	129
0	290	186.492707870357	130
0	296	187.920862850888	131
0	302	189.487342885152	132
0	303	190.600699790443	133
0	305	192.17252448403	134
0	306	194.022589619427	135
0	307	195.514905546947	136
0	308	197.495343084369	137
0	309	199.154378611516	138
0	312	200.481183377715	139
0	314	202.349151712531	140
0	315	203.703003779208	141
0	316	205.233930646596	142
0	322	206.353412563135	143
0	324	208.197641526735	144
0	325	209.760425139605	145
0	327	211.579687191327	146
0	328	213.237274813387	147
0	329	214.487416720172	148
0	331	215.624944566438	149
0	332	217.157173090769	150
0	333	219.096002001237	151
0	334	220.400817709897	152
0	340	222.058894424388	153
0	344	223.7934136036	154
0	350	225.209055928901	155
0	352	226.549422090795	156
0	353	227.834733026955	157
0	354	229.531784465924	158
0	355	231.486850403404	159
0	356	233.036997830883	160
0	359	234.037778725304	161
0	364	236.003308035123	162
0	368	237.294851790803	163
0	374	238.894384010384	164
1	2	0.407709797404	1
1	8	1.519087120353	2
1	14	4.123702047947	3
1	21	7.264342533698	4
1	29	11.434112281374	5
1	44	24.261827924961	6
1	47	25.437675779456	7
1	53	26.726997139145	8
1	62	34.164546011423	9
1	68	35.575464917197	10
1	76	43.716036286525	11
1	85	50.669001263826	12
1	92	53.872934019579	13
1	110	72.090084012548	14
1	120	78.711863977749	15
1	126	83.869327266416	16
1	131	84.73781968764	17
1	134	86.443250757851	18
1	140	87.424720270161	19
1	148	92.319756225196	20
1	154	95.32277918091	21
1	158	98.018537106897	22
1	162	101.136057634844	23
1	166	104.288381673236	24
1	171	108.946073797997	25
1	175	110.38530709287	26
1	190	122.836313452529	27
1	195	126.376517994327	28
1	202	130.936538936266	29
1	205	132.274731056411	30
1	209	134.699387688258	31
1	215	136.031820658718	32
1	220	141.105220398104	33
1	225	145.62774995657	34
1	231	146.66843274359	35
1	238	150.204871243123	36
1	249	161.49695321117	37
1	253	163.854009750383	38
1	257	167.36485498841	39
1	268	175.637917303066	40
1	271	177.005254954366	41
1	276	178.681419380748	42
1	279	179.73418895545	43
1	284	183.689681412332	44
1	291	186.642030844936	45
1	297	188.054274011111	46
1	310	199.316143069636	47
1	317	205.344188262148	48
1	335	220.522889810983	49
1	341	222.310248627365	50
1	345	224.092081933006	51
1	357	233.195184210778	52
1	360	234.159488252535	53
1	365	236.204448721269	54
1	369	237.503033675711	55
1	375	239.077969406067	56
2	2	0.407709797404	1
2	8	1.519087120353	2
2	14	4.123702047947	3
2	21	7.264342533698	4
2	29	11.434112281374	5
2	44	24.261827924961	6
2	47	25.437675779456	7
2	53	26.726997139145	8
2	62	34.164546011423	9
2	68	35.575464917197	10
2	76	43.716036286525	11
2	85	50.669001263826	12
2	92	53.872934019579	13
2	110	72.090084012548	14
2	120	78.711863977749	15
2	126	83.869327266416	16
2	131	84.73781968764	17
2	134	86.443250757851	18
2	140	87.424720270161	19
2	148	92.319756225196	20
2	154	95.32277918091	21
2	158	98.018537106897	22
2	162	101.136057634844	23
2	166	104.288381673236	24
2	171	108.946073797997	25
2	175	110.38530709287	26
2	190	122.836313452529	27
2	195	126.376517994327	28
2	202	130.936538936266	29
2	205	132.274731056411	30
2	209	134.699387688258	31
2	215	136.031820658718	32
2	220	141.105220398104	33
2	225	145.62774995657	34
2	231	146.66843274359	35
2	238	150.204871243123	36
2	249	161.49695321117	37
2	253	163.854009750383	38
2	257	167.36485498841	39
2	268	175.637917303066	40
2	271	177.005254954366	41
2	276	178.681419380748	42
2	279	179.73418895545	43
2	284	183.689681412332	44
2	291	186.642030844936	45
2	297	188.054274011111	46
2	310	199.316143069636	47
2	317	205.344188262148	48
2	335	220.522889810983	49
2	341	222.310248627365	50
2	345	224.092081933006	51
2	357	233.195184210778	52
2	360	234.159488252535	53
2	365	236.204448721269	54
2	369	237.503033675711	55
2	375	239.077969406067	56
3	3	0.68027777693	1
3	9	1.677153768945	2
3	15	4.264832074277	3
3	22	7.377957234514	4
3	30	11.683454512803	5
3	48	25.636548346534	6
3	63	34.446432853532	7
3	69	35.818271312128	8
3	86	50.937299488549	9
3	93	54.159010950101	10
3	111	72.339353768578	11
3	121	78.996191221399	12
3	127	84.023007677418	13
3	135	86.723622210309	14
3	141	87.535921818784	15
3	149	92.522797161331	16
3	172	109.109371173102	17
3	176	110.581115024424	18
3	196	126.643233969947	19
3	210	134.884104566444	20
3	226	145.793393501037	21
3	232	146.956822598661	22
3	272	177.270136568384	23
3	285	183.845476890242	24
3	292	186.848134187407	25
3	298	188.342965662269	26
3	318	205.605463294495	27
3	336	220.724955232975	28
3	342	222.578200819772	29
3	346	224.256552469633	30
3	361	234.36837597123	31
3	366	236.336172094482	32
3	370	237.62125696801	33
4	3	0.68027777693	1
4	9	1.677153768945	2
4	15	4.264832074277	3
4	22	7.377957234514	4
4	30	11.683454512803	5
4	48	25.636548346534	6
4	63	34.446432853532	7
4	69	35.818271312128	8
4	86	50.937299488549	9
4	93	54.159010950101	10
4	111	72.339353768578	11
4	121	78.996191221399	12
4	127	84.023007677418	13
4	135	86.723622210309	14
4	141	87.535921818784	15
4	149	92.522797161331	16
4	172	109.109371173102	17
4	176	110.581115024424	18
4	196	126.643233969947	19
4	210	134.884104566444	20
4	226	145.793393501037	21
4	232	146.956822598661	22
4	272	177.270136568384	23
4	285	183.845476890242	24
4	292	186.848134187407	25
4	298	188.342965662269	26
4	318	205.605463294495	27
4	336	220.724955232975	28
4	342	222.578200819772	29
4	346	224.256552469633	30
4	361	234.36837597123	31
4	366	236.336172094482	32
4	370	237.62125696801	33
5	4	0.905994540572	1
5	10	1.86976415956	2
5	16	4.488325523404	3
5	23	7.495515503302	4
5	31	11.871058845586	5
5	49	25.814713957451	6
5	64	34.633349643939	7
5	87	51.223879522596	8
5	112	72.578303995053	9
5	128	84.140011373213	10
5	136	86.929363397105	11
5	142	87.664794093326	12
5	150	92.798171668197	13
5	177	110.78315180977	14
5	197	126.817045357478	15
5	211	135.045474007973	16
5	227	146.079179052506	17
5	233	147.158358358641	18
5	273	177.506535355366	19
5	286	184.048754760703	20
5	293	187.081833982161	21
5	299	188.471813528327	22
5	319	205.776976166443	23
5	337	220.910546322903	24
5	347	224.473306300822	25
5	362	234.62105332327	26
5	371	237.891352582708	27
6	4	0.905994540572	1
6	10	1.86976415956	2
6	16	4.488325523404	3
6	23	7.495515503302	4
6	31	11.871058845586	5
6	49	25.814713957451	6
6	64	34.633349643939	7
6	87	51.223879522596	8
6	112	72.578303995053	9
6	128	84.140011373213	10
6	136	86.929363397105	11
6	142	87.664794093326	12
6	150	92.798171668197	13
6	177	110.78315180977	14
6	197	126.817045357478	15
6	211	135.045474007973	16
6	227	146.079179052506	17
6	233	147.158358358641	18
6	273	177.506535355366	19
6	286	184.048754760703	20
6	293	187.081833982161	21
6	299	188.471813528327	22
6	319	205.776976166443	23
6	337	220.910546322903	24
6	347	224.473306300822	25
6	362	234.62105332327	26
6	371	237.891352582708	27
7	5	1.129530219655	1
7	17	4.600032881359	2
7	24	7.785066233814	3
7	32	12.081361522175	4
7	50	25.940516085454	5
7	65	34.806272799922	6
7	88	51.358377236019	7
7	113	72.84524834038	8
7	137	87.156179092397	9
7	143	87.894815619504	10
7	178	110.970142386962	11
7	212	135.178887307405	12
7	228	146.223469027181	13
7	234	147.393738263152	14
7	287	184.299476382065	15
7	294	187.370422874653	16
7	300	188.764518133375	17
7	320	205.908945610685	18
7	338	221.102580003122	19
7	348	224.746230015655	20
7	372	238.150231621076	21
8	5	1.129530219655	1
8	17	4.600032881359	2
8	24	7.785066233814	3
8	32	12.081361522175	4
8	50	25.940516085454	5
8	65	34.806272799922	6
8	88	51.358377236019	7
8	113	72.84524834038	8
8	137	87.156179092397	9
8	143	87.894815619504	10
8	178	110.970142386962	11
8	212	135.178887307405	12
8	228	146.223469027181	13
8	234	147.393738263152	14
8	287	184.299476382065	15
8	294	187.370422874653	16
8	300	188.764518133375	17
8	320	205.908945610685	18
8	338	221.102580003122	19
8	348	224.746230015655	20
8	372	238.150231621076	21
9	6	1.266408412499	1
9	18	4.783481424949	2
9	25	7.97987258192	3
9	33	12.369500123315	4
9	51	26.098568911186	5
9	66	35.024979166402	6
9	89	51.626292968232	7
9	115	73.021264094527	8
9	139	87.291780765144	9
9	144	88.059542616943	10
9	179	111.261016766866	11
9	213	135.375705762339	12
9	229	146.455175601871	13
9	235	147.537909693956	14
9	288	184.505426460256	15
9	295	187.633990321966	16
9	301	188.946581089137	17
9	321	206.153313581013	18
9	339	221.377546472923	19
9	349	224.938532059137	20
9	373	238.360995045378	21

