version 3
run General-1-20231012-13:15:56-33747
attr configname General
attr datetime 20231012-13:15:56
attr datetimef 20231012-131556
attr experiment General
attr inifile omnetpp.ini
attr iterationvars ""
attr iterationvarsd ""
attr iterationvarsf ""
attr measurement ""
attr network Multihop
attr processid 33747
attr repetition 1
attr replication #1
attr resultdir results
attr runnumber 1
attr seedset 1
config network Multihop
config Multihop.node[*].transmissionTime "uniform(1s, 2s)"
config Multihop.node[*].delayTime "uniform(0.01s, 0.2s)"
config Multihop.node[0].lossProbability 0.5
config Multihop.node[1].lossProbability 0.4
config Multihop.node[2].lossProbability 0.35
config Multihop.node[3].lossProbability 0.25
config Multihop.node[4].lossProbability 0.2
config Multihop.node[5].lossProbability 0.1
config record-eventlog true
config sim-time-limit 240s
config repeat 5

vector 0 Multihop.node[0] txVector ETV
vector 1 Multihop.node[1] rxVector ETV
vector 2 Multihop.node[1] txVector ETV
vector 3 Multihop.node[2] rxVector ETV
vector 4 Multihop.node[2] txVector ETV
vector 5 Multihop.node[3] rxVector ETV
vector 6 Multihop.node[3] txVector ETV
vector 7 Multihop.node[4] rxVector ETV
vector 8 Multihop.node[4] txVector ETV
vector 9 Multihop.node[5] rxVector ETV
0	0	0	1
0	1	0.089234179703	2
0	3	2.021791540903	3
0	4	3.324124108653	4
0	6	4.560213084917	5
0	7	5.746473296198	6
0	8	7.092034021278	7
0	14	9.02757309389	8
0	20	10.054960689858	9
0	26	11.833349925351	10
0	31	13.727956589196	11
0	36	14.826303425595	12
0	38	16.1418190595	13
0	41	17.97644473298	14
0	44	19.965305820457	15
0	45	21.411440321128	16
0	47	22.514666333213	17
0	48	23.983904858004	18
0	51	25.277519001277	19
0	52	26.80231838429	20
0	53	27.8859413896	21
0	56	29.097569500679	22
0	57	30.681958624512	23
0	58	32.247870653054	24
0	61	33.394599225257	25
0	67	34.496933655698	26
0	73	35.542279380724	27
0	79	36.679754083395	28
0	81	38.041015106836	29
0	87	39.678851585487	30
0	88	41.44208464271	31
0	89	42.798616359593	32
0	92	44.226707549883	33
0	94	45.848403269775	34
0	95	47.635354743689	35
0	97	49.08526687685	36
0	99	50.493403680972	37
0	100	52.256323748152	38
0	102	53.830003236304	39
0	103	55.602742379648	40
0	106	56.929387281766	41
0	112	58.28665704222	42
0	115	59.837981980877	43
0	116	60.975117730793	44
0	119	62.167073806866	45
0	120	63.922536858709	46
0	124	65.131105166979	47
0	125	66.15098529903	48
0	126	67.177196286272	49
0	127	68.205502775384	50
0	133	69.307638007801	51
0	134	70.541260535482	52
0	135	71.632816975822	53
0	141	73.602412721494	54
0	143	75.215360811798	55
0	144	77.078902664481	56
0	147	78.506715299681	57
0	148	79.56663299457	58
0	149	80.687976445656	59
0	151	82.604386318827	60
0	155	84.220715261649	61
0	156	85.292689544733	62
0	157	87.259965874373	63
0	158	88.828066337041	64
0	159	90.031359578136	65
0	160	91.283685324832	66
0	161	93.027511182127	67
0	162	94.222940662296	68
0	166	95.594074557654	69
0	167	97.087844270866	70
0	168	98.707799982864	71
0	170	100.600821194591	72
0	172	102.251941759957	73
0	173	103.73828686646	74
0	176	105.500860004107	75
0	182	106.610196067838	76
0	184	107.875115626145	77
0	185	109.639357238661	78
0	186	110.852090933479	79
0	188	112.06226494571	80
0	190	113.128801428134	81
0	191	114.224109239763	82
0	197	115.417543520572	83
0	198	116.483504609324	84
0	203	118.006241234139	85
0	204	119.24060332042	86
0	210	120.996938710686	87
0	212	122.386946428687	88
0	213	123.553898021233	89
0	219	125.103445940538	90
0	220	126.277401606206	91
0	221	127.40373112669	92
0	222	128.538810282133	93
0	224	129.551522948432	94
0	225	131.499493159239	95
0	227	132.833678379773	96
0	228	134.009874640151	97
0	229	135.341938212865	98
0	232	137.227628073773	99
0	233	139.167735560449	100
0	234	140.749749739772	101
0	240	141.991238876131	102
0	242	143.276957730415	103
0	243	145.227001037567	104
0	246	146.242534311374	105
0	247	147.491234511256	106
0	249	148.806479317488	107
0	252	150.384336534308	108
0	254	151.996367715185	109
0	255	153.012240694954	110
0	256	154.061951710029	111
0	262	155.980553488132	112
0	263	157.585269588862	113
0	264	159.414115398541	114
0	265	160.988826906426	115
0	266	162.616903108662	116
0	267	163.902479385842	117
0	273	165.599988881616	118
0	275	166.922669882305	119
0	277	168.373543817202	120
0	278	169.613761449816	121
0	279	170.636930180133	122
0	280	172.168598286693	123
0	281	173.298793004711	124
0	283	174.7290402815	125
0	286	176.406841169928	126
0	287	177.416840897293	127
0	288	178.636707195432	128
0	293	180.516705482385	129
0	294	181.815505706358	130
0	297	183.343220351382	131
0	299	185.076362882859	132
0	301	186.847246797408	133
0	307	188.312956673211	134
0	308	190.29577378987	135
0	309	191.47738664609	136
0	310	193.289245339228	137
0	314	194.362368650619	138
0	316	196.266247913359	139
0	317	197.491287866958	140
0	319	199.330067275676	141
0	320	201.246372827447	142
0	322	202.713458142594	143
0	323	203.824349445409	144
0	324	205.017312178739	145
0	325	206.516896349263	146
0	326	208.245482020896	147
0	327	209.453676459963	148
0	333	211.126823739034	149
0	334	213.017340857421	150
0	336	214.49448184285	151
0	337	215.694690838108	152
0	339	217.238700958086	153
0	342	218.383246497135	154
0	343	219.43154650915	155
0	346	221.21684253926	156
0	347	222.609782806715	157
0	349	224.454492416117	158
0	352	226.321100687259	159
0	354	228.17521613196	160
0	355	229.222534360946	161
0	361	230.926051349495	162
0	363	232.229929777211	163
0	364	233.48699907551	164
0	365	235.11930239119	165
0	371	236.89822463307	166
0	372	238.866237286594	167
1	9	7.277419840323	1
1	15	9.181192765699	2
1	21	10.202599971682	3
1	27	12.107703771961	4
1	32	13.965356917024	5
1	39	16.400648809281	6
1	42	18.205010429807	7
1	49	24.112177587206	8
1	54	28.170145043126	9
1	59	32.474518933537	10
1	62	33.548492155333	11
1	68	34.708753973333	12
1	74	35.755029137129	13
1	82	38.293669406325	14
1	90	43.051646146135	15
1	104	55.741799045913	16
1	107	57.174105361014	17
1	113	58.527927456874	18
1	117	61.262310869118	19
1	121	64.175773335416	20
1	128	68.362282878659	21
1	136	71.851129640813	22
1	145	77.330855775995	23
1	152	82.757271093175	24
1	163	94.443398858926	25
1	174	103.963489463758	26
1	177	105.798697073733	27
1	192	114.361329211058	28
1	199	116.733167142803	29
1	205	119.467791207799	30
1	214	123.66847733002	31
1	230	135.476827613231	32
1	235	141.026727817796	33
1	244	145.396587095332	34
1	250	149.071348328372	35
1	257	154.247840615391	36
1	268	164.123977719977	37
1	284	174.919044485264	38
1	289	178.752778877064	39
1	295	182.028242418754	40
1	302	186.969982887061	41
1	311	193.565488052993	42
1	328	209.610802836208	43
1	340	217.445669546752	44
1	344	219.712368669105	45
1	350	224.564684939297	46
1	356	229.469973663785	47
1	366	235.294908908984	48
2	9	7.277419840323	1
2	15	9.181192765699	2
2	21	10.202599971682	3
2	27	12.107703771961	4
2	32	13.965356917024	5
2	39	16.400648809281	6
2	42	18.205010429807	7
2	49	24.112177587206	8
2	54	28.170145043126	9
2	59	32.474518933537	10
2	62	33.548492155333	11
2	68	34.708753973333	12
2	74	35.755029137129	13
2	82	38.293669406325	14
2	90	43.051646146135	15
2	104	55.741799045913	16
2	107	57.174105361014	17
2	113	58.527927456874	18
2	117	61.262310869118	19
2	121	64.175773335416	20
2	128	68.362282878659	21
2	136	71.851129640813	22
2	145	77.330855775995	23
2	152	82.757271093175	24
2	163	94.443398858926	25
2	174	103.963489463758	26
2	177	105.798697073733	27
2	192	114.361329211058	28
2	199	116.733167142803	29
2	205	119.467791207799	30
2	214	123.66847733002	31
2	230	135.476827613231	32
2	235	141.026727817796	33
2	244	145.396587095332	34
2	250	149.071348328372	35
2	257	154.247840615391	36
2	268	164.123977719977	37
2	284	174.919044485264	38
2	289	178.752778877064	39
2	295	182.028242418754	40
2	302	186.969982887061	41
2	311	193.565488052993	42
2	328	209.610802836208	43
2	340	217.445669546752	44
2	344	219.712368669105	45
2	350	224.564684939297	46
2	356	229.469973663785	47
2	366	235.294908908984	48
3	10	7.548218914785	1
3	16	9.418581592135	2
3	22	10.448634368743	3
3	28	12.233862171301	4
3	33	14.155367364957	5
3	63	33.737162792691	6
3	69	34.84534753618	7
3	75	35.891491642375	8
3	83	38.427669233675	9
3	108	57.456727038651	10
3	122	64.295141142106	11
3	129	68.527139266862	12
3	137	72.06772538257	13
3	153	82.874110985958	14
3	164	94.562902294975	15
3	178	105.936443295021	16
3	193	114.592826778582	17
3	200	116.983161320645	18
3	206	119.653337350419	19
3	215	123.954451801144	20
3	236	141.141265795451	21
3	258	154.357916999777	22
3	269	164.248175259618	23
3	290	179.034508847697	24
3	303	187.1450937796	25
3	312	193.800951113329	26
3	329	209.731340107289	27
3	357	229.69591941894	28
3	367	235.502314632452	29
4	10	7.548218914785	1
4	16	9.418581592135	2
4	22	10.448634368743	3
4	28	12.233862171301	4
4	33	14.155367364957	5
4	63	33.737162792691	6
4	69	34.84534753618	7
4	75	35.891491642375	8
4	83	38.427669233675	9
4	108	57.456727038651	10
4	122	64.295141142106	11
4	129	68.527139266862	12
4	137	72.06772538257	13
4	153	82.874110985958	14
4	164	94.562902294975	15
4	178	105.936443295021	16
4	193	114.592826778582	17
4	200	116.983161320645	18
4	206	119.653337350419	19
4	215	123.954451801144	20
4	236	141.141265795451	21
4	258	154.357916999777	22
4	269	164.248175259618	23
4	290	179.034508847697	24
4	303	187.1450937796	25
4	312	193.800951113329	26
4	329	209.731340107289	27
4	357	229.69591941894	28
4	367	235.502314632452	29
5	11	7.717740882253	1
5	17	9.607869504955	2
5	23	10.711158294357	3
5	29	12.351282580304	4
5	34	14.447366376032	5
5	64	33.979098822713	6
5	70	35.105904216233	7
5	76	36.15489598758	8
5	84	38.668808105704	9
5	109	57.685165460875	10
5	130	68.681173374914	11
5	138	72.181268367683	12
5	179	106.143113155361	13
5	194	114.802514136835	14
5	201	117.124588482075	15
5	207	119.939125370934	16
5	216	124.239011153924	17
5	237	141.434753888386	18
5	259	154.653501237113	19
5	270	164.365104503025	20
5	291	179.27042561251	21
5	304	187.268053555015	22
5	330	209.871280236663	23
5	358	229.957846318823	24
5	368	235.729214969739	25
6	11	7.717740882253	1
6	17	9.607869504955	2
6	23	10.711158294357	3
6	29	12.351282580304	4
6	34	14.447366376032	5
6	64	33.979098822713	6
6	70	35.105904216233	7
6	76	36.15489598758	8
6	84	38.668808105704	9
6	109	57.685165460875	10
6	130	68.681173374914	11
6	138	72.181268367683	12
6	179	106.143113155361	13
6	194	114.802514136835	14
6	201	117.124588482075	15
6	207	119.939125370934	16
6	216	124.239011153924	17
6	237	141.434753888386	18
6	259	154.653501237113	19
6	270	164.365104503025	20
6	291	179.27042561251	21
6	304	187.268053555015	22
6	330	209.871280236663	23
6	358	229.957846318823	24
6	368	235.729214969739	25
7	12	7.927405033167	1
7	18	9.824020572148	2
7	24	10.838790448302	3
7	65	34.167792883291	4
7	71	35.221566474652	5
7	77	36.340454586022	6
7	85	38.901880490908	7
7	110	57.798171496635	8
7	131	68.975030280785	9
7	139	72.443388575569	10
7	180	106.294086707677	11
7	195	115.088227650727	12
7	208	120.087792331301	13
7	217	124.424037520579	14
7	238	141.62644778873	15
7	260	154.835051497306	16
7	271	164.625090472879	17
7	305	187.449859148575	18
7	331	210.096249851533	19
7	359	230.074414850964	20
7	369	235.847890591471	21
8	12	7.927405033167	1
8	18	9.824020572148	2
8	24	10.838790448302	3
8	65	34.167792883291	4
8	71	35.221566474652	5
8	77	36.340454586022	6
8	85	38.901880490908	7
8	110	57.798171496635	8
8	131	68.975030280785	9
8	139	72.443388575569	10
8	180	106.294086707677	11
8	195	115.088227650727	12
8	208	120.087792331301	13
8	217	124.424037520579	14
8	238	141.62644778873	15
8	260	154.835051497306	16
8	271	164.625090472879	17
8	305	187.449859148575	18
8	331	210.096249851533	19
8	359	230.074414850964	20
8	369	235.847890591471	21
9	13	8.121661082981	1
9	19	9.960694090169	2
9	25	11.047239432466	3
9	66	34.287284040469	4
9	72	35.499360314265	5
9	78	36.48187188286	6
9	86	39.079128918347	7
9	111	58.084764571152	8
9	132	69.137910860887	9
9	140	72.597653687512	10
9	181	106.578211011202	11
9	196	115.248254037899	12
9	209	120.199312846346	13
9	218	124.717057402084	14
9	239	141.802242605876	15
9	261	155.130070370407	16
9	272	164.906190896832	17
9	306	187.574988104195	18
9	332	210.266902372024	19
9	360	230.330760209511	20
9	370	236.042649497521	21

