version 3
run General-3-20231013-11:46:29-28182
attr configname General
attr datetime 20231013-11:46:29
attr datetimef 20231013-114629
attr experiment General
attr inifile omnetpp.ini
attr iterationvars ""
attr iterationvarsd ""
attr iterationvarsf ""
attr measurement ""
attr network Multihop
attr processid 28182
attr repetition 3
attr replication #3
attr resultdir results
attr runnumber 3
attr seedset 3
config network Multihop
config Multihop.node[*].transmissionTime "uniform(1s, 2s)"
config Multihop.node[*].delayTime "uniform(0.01s, 0.2s)"
config Multihop.node[0].lossProbability 0.5
config Multihop.node[1].lossProbability 0.6
config Multihop.node[2].lossProbability 0.7
config Multihop.node[3].lossProbability 0.1
config Multihop.node[4].lossProbability 0.2
config Multihop.node[5].lossProbability 0.1
config record-eventlog true
config sim-time-limit 240s
config repeat 5

vector 0 Multihop.node[0] txVector ETV
vector 1 Multihop.node[1] rxVector ETV
vector 2 Multihop.node[1] txVector ETV
vector 3 Multihop.node[2] rxVector ETV
vector 4 Multihop.node[2] txVector ETV
vector 5 Multihop.node[3] rxVector ETV
vector 6 Multihop.node[3] txVector ETV
vector 7 Multihop.node[4] rxVector ETV
vector 8 Multihop.node[4] txVector ETV
vector 9 Multihop.node[5] rxVector ETV
0	0	0	1
0	1	0.114651601831	2
0	2	1.822799424012	3
0	4	2.944128003274	4
0	7	4.381189943361	5
0	8	5.588432821981	6
0	9	6.63990002994	7
0	10	8.080709868414	8
0	12	9.226080015838	9
0	13	10.875224067435	10
0	14	12.153711351404	11
0	15	13.829966254836	12
0	16	15.420829065913	13
0	18	17.186655440438	14
0	20	18.589016082767	15
0	23	19.895376709826	16
0	24	21.052244450502	17
0	25	22.596893463122	18
0	27	24.414464190441	19
0	28	25.636422074704	20
0	34	27.354844099913	21
0	36	28.732838145295	22
0	37	30.14655682894	23
0	40	31.704397592764	24
0	41	33.020164841158	25
0	42	34.58293493751	26
0	43	36.331092374237	27
0	44	37.940716038296	28
0	45	39.144070567168	29
0	46	40.797701419634	30
0	51	42.383954321337	31
0	52	44.144532811665	32
0	53	45.208302613418	33
0	56	46.295531980996	34
0	57	47.657872439665	35
0	59	49.404618662154	36
0	61	51.093799078675	37
0	62	52.937586173952	38
0	64	54.277434837843	39
0	66	55.603241998774	40
0	67	56.745841345123	41
0	68	58.04810495868	42
0	69	59.855127633621	43
0	71	61.085711840379	44
0	73	62.736188702124	45
0	76	64.211277308713	46
0	77	66.137010093152	47
0	78	67.414333142179	48
0	79	68.590395257414	49
0	80	70.580696445961	50
0	81	72.273347062363	51
0	82	74.025487092395	52
0	84	75.213301917377	53
0	86	76.894913698851	54
0	88	78.60209430156	55
0	89	80.026824252286	56
0	91	81.866017312349	57
0	94	83.346257265031	58
0	100	85.006583167545	59
0	102	86.834605284573	60
0	103	88.56027490909	61
0	104	90.345211608408	62
0	107	92.111364364464	63
0	108	93.201155232106	64
0	114	94.373518131514	65
0	115	95.945755751411	66
0	116	97.288175338254	67
0	117	98.897821053005	68
0	119	100.537997676133	69
0	120	102.537973139974	70
0	121	103.805920894797	71
0	122	105.063127272836	72
0	123	106.339768819585	73
0	129	107.990891584968	74
0	130	109.426412137067	75
0	132	110.918227685224	76
0	133	112.001098699942	77
0	135	113.219496601801	78
0	137	115.21777972633	79
0	142	116.375449481727	80
0	144	118.123857201384	81
0	146	119.971579155493	82
0	147	121.666542593929	83
0	148	123.507962211807	84
0	150	125.427822627433	85
0	151	127.154512381953	86
0	152	128.293979508876	87
0	154	129.943552767466	88
0	155	131.820764802703	89
0	161	133.317429757285	90
0	162	134.477076915632	91
0	163	136.296618999288	92
0	165	138.261847148024	93
0	168	139.744344186577	94
0	170	141.61652370084	95
0	171	143.545022547319	96
0	172	144.908098826957	97
0	175	146.756402722866	98
0	176	147.98786375353	99
0	177	149.43145143248	100
0	182	150.527018247711	101
0	184	152.492311599737	102
0	185	154.24333890721	103
0	190	156.212768076759	104
0	191	157.268409622673	105
0	192	159.011146895427	106
0	193	160.315833323475	107
0	195	161.765234516773	108
0	196	163.743186929568	109
0	199	165.111667194709	110
0	201	167.012437999787	111
0	202	168.896679428246	112
0	204	170.202806724541	113
0	205	171.279303005271	114
0	206	172.818095667361	115
0	207	173.893662070929	116
0	208	175.077434386899	117
0	210	176.510968678239	118
0	213	178.490045933127	119
0	214	180.108782516634	120
0	215	181.266027169842	121
0	218	182.883481351966	122
0	219	184.106804329744	123
0	220	185.349782513064	124
0	221	186.829289824311	125
0	222	187.83003534454	126
0	223	188.860346702236	127
0	225	190.137114618515	128
0	226	191.816616426298	129
0	227	193.611821011483	130
0	230	195.034445429064	131
0	232	196.215185758035	132
0	234	197.580667430145	133
0	236	199.373990108335	134
0	238	201.134631251992	135
0	241	202.789765162935	136
0	244	203.968303996913	137
0	245	205.579897833366	138
0	246	206.621928687284	139
0	247	208.039195583977	140
0	249	209.139773296735	141
0	251	210.940769530677	142
0	252	212.235463023496	143
0	255	213.925739191317	144
0	258	215.770186171013	145
0	260	217.104369142636	146
0	262	218.510646327709	147
0	265	220.306972343319	148
0	267	222.136842379889	149
0	269	223.477174854914	150
0	270	224.985332286295	151
0	273	226.012364161045	152
0	276	227.835597718677	153
0	277	228.892470290961	154
0	279	230.800828311203	155
0	281	232.589872567525	156
0	282	234.090438118746	157
0	283	235.508000026766	158
0	286	237.272154269816	159
0	287	239.06098661137	160
1	5	3.223787925264	1
1	21	18.752885849153	2
1	29	25.820136613552	3
1	38	30.406113144032	4
1	47	41.033611810175	5
1	54	45.478100433783	6
1	74	62.942247773108	7
1	92	82.143428352973	8
1	95	83.603077614897	9
1	105	90.639910296954	10
1	109	93.404041149489	11
1	124	106.497599706596	12
1	138	115.377245290368	13
1	156	131.959975441938	14
1	166	138.426244932412	15
1	173	145.170109719114	16
1	178	149.66363567846	17
1	186	154.418526740338	18
1	197	163.948709628635	19
1	211	176.73179794097	20
1	216	181.42837377992	21
1	228	193.831672050372	22
1	239	201.322592091324	23
1	242	202.927370255041	24
1	253	212.533204445819	25
1	256	214.175520934933	26
1	263	218.785367528911	27
1	271	225.260915299908	28
1	274	226.17023091825	29
1	284	235.673192156108	30
2	5	3.223787925264	1
2	21	18.752885849153	2
2	29	25.820136613552	3
2	38	30.406113144032	4
2	47	41.033611810175	5
2	54	45.478100433783	6
2	74	62.942247773108	7
2	92	82.143428352973	8
2	95	83.603077614897	9
2	105	90.639910296954	10
2	109	93.404041149489	11
2	124	106.497599706596	12
2	138	115.377245290368	13
2	156	131.959975441938	14
2	166	138.426244932412	15
2	173	145.170109719114	16
2	178	149.66363567846	17
2	186	154.418526740338	18
2	197	163.948709628635	19
2	211	176.73179794097	20
2	216	181.42837377992	21
2	228	193.831672050372	22
2	239	201.322592091324	23
2	242	202.927370255041	24
2	253	212.533204445819	25
2	256	214.175520934933	26
2	263	218.785367528911	27
2	271	225.260915299908	28
2	274	226.17023091825	29
2	284	235.673192156108	30
3	30	25.934053368936	1
3	48	41.197474503685	2
3	96	83.886732914693	3
3	110	93.570738451712	4
3	125	106.698605583287	5
3	139	115.576671826814	6
3	157	132.203685984965	7
3	179	149.932648983913	8
3	187	154.665355474745	9
4	30	25.934053368936	1
4	48	41.197474503685	2
4	96	83.886732914693	3
4	110	93.570738451712	4
4	125	106.698605583287	5
4	139	115.576671826814	6
4	157	132.203685984965	7
4	179	149.932648983913	8
4	187	154.665355474745	9
5	31	26.071169661551	1
5	49	41.360290230431	2
5	97	84.117129372562	3
5	111	93.731811844179	4
5	126	106.860813880495	5
5	140	115.821083813068	6
5	158	132.442673762803	7
5	180	150.14424860936	8
5	188	154.853272828342	9
6	31	26.071169661551	1
6	49	41.360290230431	2
6	97	84.117129372562	3
6	111	93.731811844179	4
6	126	106.860813880495	5
6	140	115.821083813068	6
6	158	132.442673762803	7
6	180	150.14424860936	8
6	188	154.853272828342	9
7	32	26.242977835207	1
7	98	84.296658083674	2
7	112	94.010322488382	3
7	127	107.09473627422	4
7	159	132.671120449404	5
7	181	150.401492494791	6
8	32	26.242977835207	1
8	98	84.296658083674	2
8	112	94.010322488382	3
8	127	107.09473627422	4
8	159	132.671120449404	5
8	181	150.401492494791	6
9	33	26.506674383128	1
9	99	84.511698552685	2
9	113	94.215940993522	3
9	128	107.386461681442	4
9	160	132.97070480538	5
9	183	150.555351385676	6

