version 3
run General-2-20231013-11:46:29-28182
attr configname General
attr datetime 20231013-11:46:29
attr datetimef 20231013-114629
attr experiment General
attr inifile omnetpp.ini
attr iterationvars ""
attr iterationvarsd ""
attr iterationvarsf ""
attr measurement ""
attr network Multihop
attr processid 28182
attr repetition 2
attr replication #2
attr resultdir results
attr runnumber 2
attr seedset 2
config network Multihop
config Multihop.node[*].transmissionTime "uniform(1s, 2s)"
config Multihop.node[*].delayTime "uniform(0.01s, 0.2s)"
config Multihop.node[0].lossProbability 0.5
config Multihop.node[1].lossProbability 0.6
config Multihop.node[2].lossProbability 0.7
config Multihop.node[3].lossProbability 0.1
config Multihop.node[4].lossProbability 0.2
config Multihop.node[5].lossProbability 0.1
config record-eventlog true
config sim-time-limit 240s
config repeat 5

vector 0 Multihop.node[0] txVector ETV
vector 1 Multihop.node[1] rxVector ETV
vector 2 Multihop.node[1] txVector ETV
vector 3 Multihop.node[2] rxVector ETV
vector 4 Multihop.node[2] txVector ETV
vector 5 Multihop.node[3] rxVector ETV
vector 6 Multihop.node[3] txVector ETV
vector 7 Multihop.node[4] rxVector ETV
vector 8 Multihop.node[4] txVector ETV
vector 9 Multihop.node[5] rxVector ETV
0	0	0	1
0	1	0.092839031499	2
0	2	1.118765259413	3
0	4	3.066495870259	4
0	5	4.486863671821	5
0	6	5.81719849214	6
0	7	7.021847128189	7
0	9	8.141797672045	8
0	10	9.408624948487	9
0	12	11.226851670556	10
0	14	12.72541283818	11
0	20	14.44516706911	12
0	21	16.41479947676	13
0	23	17.480085980399	14
0	24	18.596279303097	15
0	25	19.778006340396	16
0	26	21.272296108324	17
0	28	22.498308111466	18
0	29	24.265799287958	19
0	30	25.843107358105	20
0	31	27.010930672539	21
0	32	28.378402041522	22
0	33	29.847075623944	23
0	36	31.330145455682	24
0	37	32.943175149401	25
0	39	34.523179332278	26
0	40	35.671744112642	27
0	42	37.636295194989	28
0	45	39.525815254096	29
0	48	40.953361218348	30
0	50	42.488965394925	31
0	56	44.033173550404	32
0	57	45.060375916557	33
0	59	46.491913686525	34
0	65	48.433106989385	35
0	66	50.393420719327	36
0	67	51.819443246368	37
0	73	53.176067526703	38
0	75	54.72970137258	39
0	80	56.123634663894	40
0	81	57.921039607394	41
0	82	59.190428408579	42
0	83	60.773113297549	43
0	86	62.136439188867	44
0	88	64.050914760697	45
0	90	65.462661201385	46
0	92	66.804572806711	47
0	93	68.1178313296	48
0	96	69.764845555433	49
0	98	70.99423151954	50
0	101	72.586727882753	51
0	104	74.555018455041	52
0	105	76.423935085087	53
0	106	78.172712963325	54
0	108	79.27928549705	55
0	109	80.500123413996	56
0	110	82.418582054804	57
0	112	84.216802643397	58
0	115	86.111948382127	59
0	120	88.029667103914	60
0	122	89.566120801977	61
0	123	91.114028580272	62
0	124	92.813549202885	63
0	125	94.059360364004	64
0	127	95.523102971976	65
0	129	96.735870342953	66
0	130	98.365230069514	67
0	131	99.660402375292	68
0	132	100.847688919418	69
0	134	102.727679270572	70
0	136	104.257500446421	71
0	137	105.728910304858	72
0	138	107.278407123658	73
0	141	108.553844988133	74
0	144	109.888939652379	75
0	145	111.759085545569	76
0	148	113.479433569611	77
0	150	114.765702821334	78
0	153	116.311575524529	79
0	154	117.342165002387	80
0	156	118.732750682414	81
0	158	120.552216057919	82
0	159	121.595717245035	83
0	160	122.990868004758	84
0	161	124.659295054173	85
0	162	125.857322168324	86
0	163	127.733588622903	87
0	164	129.165977723218	88
0	165	130.785619184628	89
0	166	132.076045930406	90
0	169	134.068030179499	91
0	170	135.275080014041	92
0	172	136.760133780327	93
0	174	138.514314732768	94
0	175	139.556743923596	95
0	177	140.742333659691	96
0	178	142.450304834194	97
0	179	144.227892746239	98
0	180	146.004995750052	99
0	181	147.507774497637	100
0	183	148.750941286584	101
0	189	150.428081029582	102
0	190	152.164681566901	103
0	192	153.173129931813	104
0	193	155.000583282228	105
0	195	156.102721232244	106
0	197	157.385979979321	107
0	198	158.453715218486	108
0	199	160.081896437121	109
0	202	161.652170645561	110
0	204	163.153387100691	111
0	207	164.372207883535	112
0	208	165.71830603273	113
0	210	167.5948679012	114
0	213	169.437200945125	115
0	215	171.253220099512	116
0	216	172.672127411723	117
0	217	173.740726598794	118
0	218	174.838274669391	119
0	221	176.630604885775	120
0	223	178.435736425943	121
0	226	179.641530103772	122
0	228	180.684659140674	123
0	229	182.55083938248	124
0	230	184.524838748644	125
0	231	186.28085175578	126
0	233	188.000539299124	127
0	235	189.770398956048	128
0	236	191.165613014972	129
0	237	192.764159396546	130
0	239	194.17863864547	131
0	241	195.821091071026	132
0	242	196.82263180639	133
0	244	198.203424387401	134
0	245	200.167821286269	135
0	248	201.640029874653	136
0	251	203.620514952368	137
0	253	205.382850200194	138
0	254	206.558494886407	139
0	257	208.020233789482	140
0	263	209.316746541788	141
0	264	210.958558306121	142
0	267	212.810230579949	143
0	268	213.985829654872	144
0	269	215.699151217496	145
0	270	217.584414895648	146
0	271	219.567553262716	147
0	272	221.220460211882	148
0	274	223.103981900518	149
0	275	224.662932693516	150
0	277	225.880840014923	151
0	280	226.981515672315	152
0	286	228.452210673621	153
0	288	230.403720825236	154
0	290	232.044659465342	155
0	291	233.25270108229	156
0	293	234.605914978101	157
0	294	236.038048078795	158
0	296	237.862938565458	159
0	298	239.32638782335	160
1	15	12.870456412121	1
1	34	30.081386198543	2
1	43	37.787576479753	3
1	46	39.684974556593	4
1	51	42.750623468817	5
1	60	46.790745568513	6
1	68	51.99078934761	7
1	76	54.913210450543	8
1	84	60.887967977136	9
1	94	68.235772893903	10
1	99	71.226561486189	11
1	102	72.864241806263	12
1	113	84.376920563401	13
1	116	86.324584769026	14
1	139	107.54897861651	15
1	142	108.707947455653	16
1	146	111.910392005857	17
1	151	114.919321886642	18
1	167	132.3029442988	19
1	184	148.95241833656	20
1	200	160.312535703965	21
1	205	163.446695425095	22
1	211	167.853568174616	23
1	219	174.991270939684	24
1	224	178.607647216572	25
1	246	200.312531689952	26
1	249	201.873737390765	27
1	255	206.716947590467	28
1	258	208.20368464702	29
1	265	211.085160349062	30
1	278	226.106536744449	31
1	281	227.279399470397	32
2	15	12.870456412121	1
2	34	30.081386198543	2
2	43	37.787576479753	3
2	46	39.684974556593	4
2	51	42.750623468817	5
2	60	46.790745568513	6
2	68	51.99078934761	7
2	76	54.913210450543	8
2	84	60.887967977136	9
2	94	68.235772893903	10
2	99	71.226561486189	11
2	102	72.864241806263	12
2	113	84.376920563401	13
2	116	86.324584769026	14
2	139	107.54897861651	15
2	142	108.707947455653	16
2	146	111.910392005857	17
2	151	114.919321886642	18
2	167	132.3029442988	19
2	184	148.95241833656	20
2	200	160.312535703965	21
2	205	163.446695425095	22
2	211	167.853568174616	23
2	219	174.991270939684	24
2	224	178.607647216572	25
2	246	200.312531689952	26
2	249	201.873737390765	27
2	255	206.716947590467	28
2	258	208.20368464702	29
2	265	211.085160349062	30
2	278	226.106536744449	31
2	281	227.279399470397	32
3	16	13.029571047601	1
3	52	42.876221503769	2
3	61	46.996317896002	3
3	69	52.109468350969	4
3	77	55.199254332757	5
3	117	86.442186903685	6
3	185	149.230725542786	7
3	259	208.347072243024	8
3	282	227.458917917981	9
4	16	13.029571047601	1
4	52	42.876221503769	2
4	61	46.996317896002	3
4	69	52.109468350969	4
4	77	55.199254332757	5
4	117	86.442186903685	6
4	185	149.230725542786	7
4	259	208.347072243024	8
4	282	227.458917917981	9
5	17	13.243350437727	1
5	53	43.055826558967	2
5	62	47.239705883017	3
5	70	52.406267504934	4
5	78	55.310307772753	5
5	118	86.691423176328	6
5	186	149.369903020996	7
5	260	208.472127496176	8
5	283	227.75332199108	9
6	17	13.243350437727	1
6	53	43.055826558967	2
6	62	47.239705883017	3
6	70	52.406267504934	4
6	78	55.310307772753	5
6	118	86.691423176328	6
6	186	149.369903020996	7
6	260	208.472127496176	8
6	283	227.75332199108	9
7	18	13.430738925902	1
7	54	43.327488154353	2
7	63	47.483948863404	3
7	71	52.600124939321	4
7	187	149.659774904472	5
7	261	208.619918324304	6
7	284	227.964475123213	7
8	18	13.430738925902	1
8	54	43.327488154353	2
8	63	47.483948863404	3
8	71	52.600124939321	4
8	187	149.659774904472	5
8	261	208.619918324304	6
8	284	227.964475123213	7
9	19	13.574366004419	1
9	55	43.514680413502	2
9	64	47.685342996881	3
9	72	52.805885022745	4
9	188	149.825586213935	5
9	262	208.811540161324	6
9	285	228.151006161446	7

