version 3
run General-3-20231012-13:15:56-33747
attr configname General
attr datetime 20231012-13:15:56
attr datetimef 20231012-131556
attr experiment General
attr inifile omnetpp.ini
attr iterationvars ""
attr iterationvarsd ""
attr iterationvarsf ""
attr measurement ""
attr network Multihop
attr processid 33747
attr repetition 3
attr replication #3
attr resultdir results
attr runnumber 3
attr seedset 3
config network Multihop
config Multihop.node[*].transmissionTime "uniform(1s, 2s)"
config Multihop.node[*].delayTime "uniform(0.01s, 0.2s)"
config Multihop.node[0].lossProbability 0.5
config Multihop.node[1].lossProbability 0.4
config Multihop.node[2].lossProbability 0.35
config Multihop.node[3].lossProbability 0.25
config Multihop.node[4].lossProbability 0.2
config Multihop.node[5].lossProbability 0.1
config record-eventlog true
config sim-time-limit 240s
config repeat 5

vector 0 Multihop.node[0] txVector ETV
vector 1 Multihop.node[1] rxVector ETV
vector 2 Multihop.node[1] txVector ETV
vector 3 Multihop.node[2] rxVector ETV
vector 4 Multihop.node[2] txVector ETV
vector 5 Multihop.node[3] rxVector ETV
vector 6 Multihop.node[3] txVector ETV
vector 7 Multihop.node[4] rxVector ETV
vector 8 Multihop.node[4] txVector ETV
vector 9 Multihop.node[5] rxVector ETV
0	0	0	1
0	1	0.114651601831	2
0	2	1.822799424012	3
0	7	2.944128003274	4
0	8	4.151370881894	5
0	9	5.202838089853	6
0	10	6.643647928327	7
0	16	7.789018075751	8
0	22	8.812999958942	9
0	23	10.506137878472	10
0	25	11.781057986036	11
0	26	13.325706998656	12
0	28	15.143277725975	13
0	29	16.365235610238	14
0	35	18.083657635447	15
0	41	19.461651680829	16
0	42	20.686706183549	17
0	43	22.093226100622	18
0	45	23.841383537349	19
0	51	25.044738066221	20
0	52	26.418862794364	21
0	53	27.494062908065	22
0	54	29.254641398393	23
0	55	30.318411200146	24
0	60	31.405640567724	25
0	62	33.096733489843	26
0	64	34.413018023433	27
0	66	35.902309279028	28
0	68	37.728437353694	29
0	70	38.871036700043	30
0	71	40.11371212157	31
0	73	41.433207156673	32
0	74	43.124684666354	33
0	75	44.775161528099	34
0	76	46.499100664701	35
0	79	48.417130687112	36
0	81	49.694453736139	37
0	82	50.846314728796	38
0	84	52.538965345198	39
0	86	53.655181935593	40
0	87	55.60728318065	41
0	93	56.936854538578	42
0	99	58.663174036728	43
0	104	60.44890437096	44
0	110	61.682596380195	45
0	113	62.772387247837	46
0	115	64.560005448132	47
0	116	66.446903575516	48
0	117	67.950158865728	49
0	118	69.522396485625	50
0	119	70.864816072468	51
0	120	72.474461787219	52
0	122	74.114638410347	53
0	123	76.114613874188	54
0	124	77.382561629011	55
0	125	78.63976800705	56
0	126	79.916409553799	57
0	130	81.567532319182	58
0	132	83.523981830876	59
0	133	85.071112585094	60
0	134	86.562928133251	61
0	135	87.692586517267	62
0	136	89.552639980175	63
0	141	91.093400815575	64
0	144	92.988971144965	65
0	145	94.685721132744	66
0	149	95.976593578307	67
0	153	97.818013196185	68
0	159	98.957480323108	69
0	160	100.837605112072	70
0	164	102.516488153327	71
0	165	103.757058468021	72
0	171	105.0595567595	73
0	173	106.931736273763	74
0	174	108.860235120242	75
0	175	110.22331139988	76
0	179	112.071615295789	77
0	180	113.515202974739	78
0	185	114.61076978997	79
0	187	116.576063141996	80
0	188	118.327090449469	81
0	193	120.296519619018	82
0	194	121.352161164932	83
0	195	123.094898437686	84
0	196	124.399584865734	85
0	198	125.848986059032	86
0	199	127.826938471827	87
0	202	129.195418736968	88
0	204	131.096189542046	89
0	205	132.980430970505	90
0	207	134.2865582668	91
0	208	135.36305454753	92
0	209	136.90184720962	93
0	210	137.977413613188	94
0	211	139.161185929158	95
0	217	140.594720220498	96
0	222	141.751964873706	97
0	223	142.782894070099	98
0	224	144.014992459516	99
0	225	145.027747950821	100
0	226	146.302385420377	101
0	227	148.244299783908	102
0	228	149.521067700187	103
0	229	150.596855904978	104
0	235	152.392060490163	105
0	236	153.831482017716	106
0	239	155.196963689826	107
0	242	156.831267159503	108
0	245	158.486401070446	109
0	250	159.664939904424	110
0	251	161.082206801117	111
0	253	162.182784513875	112
0	255	163.983780747817	113
0	256	165.278474240636	114
0	262	166.968750408457	115
0	263	168.963270435182	116
0	269	170.135788683386	117
0	270	171.581702793788	118
0	274	173.411572830358	119
0	275	174.919730261739	120
0	278	175.946762136489	121
0	281	177.769995694121	122
0	282	178.826868266405	123
0	288	180.735226286647	124
0	289	182.649606725506	125
0	290	184.413760968556	126
0	292	186.082548548074	127
0	298	187.978288075493	128
0	299	189.546190248409	129
0	302	191.409441857438	130
0	304	192.957769874323	131
0	310	194.590730407581	132
0	315	195.674811084362	133
0	317	197.23217847322	134
0	318	199.100733105167	135
0	322	200.279733554301	136
0	323	201.711658871574	137
0	325	202.765665857661	138
0	327	204.393691342864	139
0	328	205.610328611294	140
0	329	207.126573092146	141
0	330	208.696781335939	142
0	331	210.520742511917	143
0	337	212.476765668094	144
0	341	213.747157668071	145
0	342	214.757014492368	146
0	348	216.752800801145	147
0	349	218.499471895471	148
0	350	220.072893175836	149
0	351	221.804598852367	150
0	352	223.355431451303	151
0	354	224.888310286523	152
0	356	226.606337839113	153
0	357	228.159770674146	154
0	361	229.195428826687	155
0	363	231.050977028282	156
0	364	232.243724002111	157
0	365	233.969891998991	158
0	366	235.513869954347	159
0	367	237.048795291064	160
0	368	238.51333226853	161
1	3	1.988071325295	1
1	11	6.759324408719	2
1	17	8.072545351776	3
1	30	16.548950149086	4
1	36	18.269465917113	5
1	46	24.006824164297	6
1	56	30.588209020511	7
1	77	46.699367499953	8
1	88	55.84678941913	9
1	94	57.155398640107	10
1	100	58.946829336524	11
1	105	60.595398107386	12
1	111	61.881778829546	13
1	127	80.07424044081	14
1	137	89.704135581528	15
1	142	91.292827352021	16
1	146	94.937918599479	17
1	150	96.145053486659	18
1	154	98.005134003156	19
1	161	101.099408332073	20
1	166	104.024352400836	21
1	176	110.485322292037	22
1	181	113.747387220719	23
1	189	118.502278282597	24
1	200	128.032461170894	25
1	212	139.354093775642	26
1	218	140.780366233629	27
1	230	150.758982816493	28
1	237	154.012158276563	29
1	240	155.350229140455	30
1	243	157.019227998835	31
1	246	158.624006162552	32
1	257	165.576215662959	33
1	264	169.13676519979	34
1	271	171.819301141035	35
1	276	175.195313275352	36
1	279	176.104628893694	37
1	283	179.072696733219	38
1	293	186.362866255515	39
1	300	189.678027372547	40
1	305	193.08162412134	41
1	311	194.814142283889	42
1	319	199.296615313263	43
1	332	210.723217636794	44
1	338	212.716301349057	45
1	343	214.882798199122	46
1	358	228.34945533445	47
2	3	1.988071325295	1
2	11	6.759324408719	2
2	17	8.072545351776	3
2	30	16.548950149086	4
2	36	18.269465917113	5
2	46	24.006824164297	6
2	56	30.588209020511	7
2	77	46.699367499953	8
2	88	55.84678941913	9
2	94	57.155398640107	10
2	100	58.946829336524	11
2	105	60.595398107386	12
2	111	61.881778829546	13
2	127	80.07424044081	14
2	137	89.704135581528	15
2	142	91.292827352021	16
2	146	94.937918599479	17
2	150	96.145053486659	18
2	154	98.005134003156	19
2	161	101.099408332073	20
2	166	104.024352400836	21
2	176	110.485322292037	22
2	181	113.747387220719	23
2	189	118.502278282597	24
2	200	128.032461170894	25
2	212	139.354093775642	26
2	218	140.780366233629	27
2	230	150.758982816493	28
2	237	154.012158276563	29
2	240	155.350229140455	30
2	243	157.019227998835	31
2	246	158.624006162552	32
2	257	165.576215662959	33
2	264	169.13676519979	34
2	271	171.819301141035	35
2	276	175.195313275352	36
2	279	176.104628893694	37
2	283	179.072696733219	38
2	293	186.362866255515	39
2	300	189.678027372547	40
2	305	193.08162412134	41
2	311	194.814142283889	42
2	319	199.296615313263	43
2	332	210.723217636794	44
2	338	212.716301349057	45
2	343	214.882798199122	46
2	358	228.34945533445	47
3	4	2.206240477173	1
3	12	6.955427145633	2
3	18	8.288727627956	3
3	31	16.66286690447	4
3	37	18.396987149275	5
3	47	24.241014026266	6
3	57	30.790090271823	7
3	89	56.025503036466	8
3	95	57.356644231117	9
3	101	59.110676737196	10
3	106	60.743944860539	11
3	128	80.275246317501	12
3	138	89.973253442853	13
3	147	95.188724255672	14
3	151	96.393212380363	15
3	155	98.17475963444	16
3	162	101.327855018674	17
3	167	104.15447752855	18
3	177	110.655106360949	19
3	182	114.016400526172	20
3	190	118.749107017004	21
3	213	139.581267780131	22
3	219	140.942712843707	23
3	231	150.978833855382	24
3	247	158.880141563926	25
3	258	165.709805603882	26
3	265	169.404167265547	27
3	272	172.049908052646	28
3	284	179.318720716122	29
3	294	186.52040215411	30
3	306	193.341950363612	31
3	312	195.044072585086	32
3	320	199.539473281754	33
3	333	211.000880123829	34
3	339	213.004444400433	35
3	344	215.002118901645	36
3	359	228.538042942459	37
4	4	2.206240477173	1
4	12	6.955427145633	2
4	18	8.288727627956	3
4	31	16.66286690447	4
4	37	18.396987149275	5
4	47	24.241014026266	6
4	57	30.790090271823	7
4	89	56.025503036466	8
4	95	57.356644231117	9
4	101	59.110676737196	10
4	106	60.743944860539	11
4	128	80.275246317501	12
4	138	89.973253442853	13
4	147	95.188724255672	14
4	151	96.393212380363	15
4	155	98.17475963444	16
4	162	101.327855018674	17
4	167	104.15447752855	18
4	177	110.655106360949	19
4	182	114.016400526172	20
4	190	118.749107017004	21
4	213	139.581267780131	22
4	219	140.942712843707	23
4	231	150.978833855382	24
4	247	158.880141563926	25
4	258	165.709805603882	26
4	265	169.404167265547	27
4	272	172.049908052646	28
4	284	179.318720716122	29
4	294	186.52040215411	30
4	306	193.341950363612	31
4	312	195.044072585086	32
4	320	199.539473281754	33
4	333	211.000880123829	34
4	339	213.004444400433	35
4	344	215.002118901645	36
4	359	228.538042942459	37
5	5	2.39928224579	1
5	13	7.106386777988	2
5	19	8.44798559252	3
5	32	16.799983197085	4
5	38	18.63113521995	5
5	48	24.476924416807	6
5	58	30.968903752902	7
5	90	56.235464126375	8
5	96	57.626643836823	9
5	102	59.388239342262	10
5	107	61.036028744928	11
5	139	90.115559815518	12
5	156	98.364480359098	13
5	168	104.318875312938	14
5	183	114.228000151619	15
5	191	118.937024370601	16
5	214	139.87729245856	17
5	220	141.204469315345	18
5	232	151.220839200321	19
5	248	158.994896367605	20
5	259	165.921188641526	21
5	266	169.522160474367	22
5	285	179.578639124823	23
5	295	186.805168069915	24
5	307	193.460216521388	25
5	313	195.263697815152	26
5	334	211.229726718618	27
5	345	215.169654670166	28
6	5	2.39928224579	1
6	13	7.106386777988	2
6	19	8.44798559252	3
6	32	16.799983197085	4
6	38	18.63113521995	5
6	48	24.476924416807	6
6	58	30.968903752902	7
6	90	56.235464126375	8
6	96	57.626643836823	9
6	102	59.388239342262	10
6	107	61.036028744928	11
6	139	90.115559815518	12
6	156	98.364480359098	13
6	168	104.318875312938	14
6	183	114.228000151619	15
6	191	118.937024370601	16
6	214	139.87729245856	17
6	220	141.204469315345	18
6	232	151.220839200321	19
6	248	158.994896367605	20
6	259	165.921188641526	21
6	266	169.522160474367	22
6	285	179.578639124823	23
6	295	186.805168069915	24
6	307	193.460216521388	25
6	313	195.263697815152	26
6	334	211.229726718618	27
6	345	215.169654670166	28
7	14	7.283628741839	1
7	20	8.636854819789	2
7	33	16.971791370741	3
7	39	18.847124965077	4
7	49	24.75242810643	5
7	59	31.213364211467	6
7	91	56.426162817013	7
7	97	57.878146778241	8
7	108	61.291597768579	9
7	157	98.641150645793	10
7	169	104.564460176309	11
7	184	114.48524403705	12
7	215	140.043029816186	13
7	233	151.405121223546	14
7	260	166.191633567668	15
7	267	169.796881675569	16
7	286	179.705468917478	17
7	296	187.079063036001	18
7	308	193.621997876808	19
7	314	195.497319827826	20
7	335	211.467115278964	21
7	346	215.420409210838	22
8	14	7.283628741839	1
8	20	8.636854819789	2
8	33	16.971791370741	3
8	39	18.847124965077	4
8	49	24.75242810643	5
8	59	31.213364211467	6
8	91	56.426162817013	7
8	97	57.878146778241	8
8	108	61.291597768579	9
8	157	98.641150645793	10
8	169	104.564460176309	11
8	184	114.48524403705	12
8	215	140.043029816186	13
8	233	151.405121223546	14
8	260	166.191633567668	15
8	267	169.796881675569	16
8	286	179.705468917478	17
8	296	187.079063036001	18
8	308	193.621997876808	19
8	314	195.497319827826	20
8	335	211.467115278964	21
8	346	215.420409210838	22
9	15	7.48722956685	1
9	21	8.800724586175	2
9	34	17.235487918662	3
9	40	19.02582227007	4
9	50	25.016561380131	5
9	61	31.46524599374	6
9	92	56.691921155481	7
9	98	58.113608699719	8
9	109	61.437365429717	9
9	158	98.780361285028	10
9	170	104.719763072881	11
9	186	114.639102927935	12
9	216	140.23934905455	13
9	234	151.523917502611	14
9	261	166.418929046651	15
9	268	170.035321027481	16
9	287	179.897457380139	17
9	297	187.285219236211	18
9	309	193.851477885636	19
9	316	195.710523923874	20
9	336	211.747575839668	21
9	347	215.537887886007	22

