version 3
run General-2-20231012-13:15:56-33747
attr configname General
attr datetime 20231012-13:15:56
attr datetimef 20231012-131556
attr experiment General
attr inifile omnetpp.ini
attr iterationvars ""
attr iterationvarsd ""
attr iterationvarsf ""
attr measurement ""
attr network Multihop
attr processid 33747
attr repetition 2
attr replication #2
attr resultdir results
attr runnumber 2
attr seedset 2
config network Multihop
config Multihop.node[*].transmissionTime "uniform(1s, 2s)"
config Multihop.node[*].delayTime "uniform(0.01s, 0.2s)"
config Multihop.node[0].lossProbability 0.5
config Multihop.node[1].lossProbability 0.4
config Multihop.node[2].lossProbability 0.35
config Multihop.node[3].lossProbability 0.25
config Multihop.node[4].lossProbability 0.2
config Multihop.node[5].lossProbability 0.1
config record-eventlog true
config sim-time-limit 240s
config repeat 5

vector 0 Multihop.node[0] txVector ETV
vector 1 Multihop.node[1] rxVector ETV
vector 2 Multihop.node[1] txVector ETV
vector 3 Multihop.node[2] rxVector ETV
vector 4 Multihop.node[2] txVector ETV
vector 5 Multihop.node[3] rxVector ETV
vector 6 Multihop.node[3] txVector ETV
vector 7 Multihop.node[4] rxVector ETV
vector 8 Multihop.node[4] txVector ETV
vector 9 Multihop.node[5] rxVector ETV
0	0	0	1
0	1	0.092839031499	2
0	2	1.118765259413	3
0	8	3.066495870259	4
0	14	4.366150547536	5
0	15	5.879728665361	6
0	21	7.599482896291	7
0	22	9.569115303941	8
0	24	10.63440180758	9
0	25	11.750595130278	10
0	26	12.932322167577	11
0	27	14.426611935505	12
0	29	15.652623938647	13
0	30	17.420115115139	14
0	31	18.997423185286	15
0	32	20.16524649972	16
0	33	21.532717868703	17
0	34	23.001391451125	18
0	40	24.484461282863	19
0	41	25.646759886079	20
0	42	27.347512229596	21
0	48	28.857038109348	22
0	49	30.666213394393	23
0	50	32.019888767757	24
0	52	33.555492944334	25
0	58	35.099701099813	26
0	59	36.126903465966	27
0	61	37.558441235934	28
0	67	39.499634538794	29
0	68	41.459948268736	30
0	69	42.885970795777	31
0	75	44.242595076112	32
0	77	45.796228921989	33
0	82	47.190162213303	34
0	83	48.987567156803	35
0	84	50.256955957988	36
0	85	51.839640846958	37
0	91	53.202966738276	38
0	92	54.614713178964	39
0	94	56.587623869784	40
0	95	57.969316808291	41
0	96	59.931776383909	42
0	97	61.578790609742	43
0	100	63.23630299351	44
0	101	65.115505023876	45
0	107	66.776986348459	46
0	108	68.645902978505	47
0	109	70.394680856743	48
0	112	71.501253390468	49
0	113	73.419712031276	50
0	115	75.217932619869	51
0	121	77.113078358599	52
0	127	78.736641540208	53
0	128	80.436162162821	54
0	129	81.68197332394	55
0	131	83.145715931912	56
0	133	84.358483302889	57
0	134	85.98784302945	58
0	135	87.283015335228	59
0	136	88.470301879354	60
0	138	90.350292230508	61
0	140	91.880113406357	62
0	141	93.351523264794	63
0	142	94.901020083594	64
0	145	96.176457948069	65
0	148	97.511552612315	66
0	149	99.381698505505	67
0	154	101.102046529547	68
0	157	102.647919232742	69
0	158	103.6785087106	70
0	161	105.069094390627	71
0	163	106.159464768618	72
0	164	107.554615528341	73
0	165	109.223042577756	74
0	166	110.421069691907	75
0	167	112.297336146486	76
0	168	113.729725246801	77
0	169	115.349366708211	78
0	170	116.639793453989	79
0	174	118.631777703082	80
0	179	120.116831469368	81
0	185	121.302421205463	82
0	187	123.259168803012	83
0	188	124.939196057171	84
0	189	126.616335800169	85
0	191	128.474175317464	86
0	192	130.420869441023	87
0	196	131.865440382175	88
0	197	133.69289373259	89
0	199	134.795031682606	90
0	201	136.078290429683	91
0	202	137.146025668848	92
0	203	138.774206887483	93
0	209	140.344481095923	94
0	211	142.124782966701	95
0	212	143.542619213015	96
0	213	145.105995322596	97
0	219	146.537209226535	98
0	222	147.668603834016	99
0	223	148.766151904613	100
0	226	150.558482120997	101
0	228	152.363613661165	102
0	234	153.569407338994	103
0	236	155.543406705158	104
0	242	157.490830046609	105
0	243	159.089376428183	106
0	245	160.503855677107	107
0	247	162.146308102663	108
0	248	163.147848838027	109
0	252	164.528641419038	110
0	253	166.273679679511	111
0	254	167.613342950605	112
0	257	169.59382802832	113
0	260	171.356163276146	114
0	266	172.817902179221	115
0	268	174.060239682226	116
0	269	175.48982829812	117
0	270	177.131640062453	118
0	273	178.983312336281	119
0	274	180.158911411204	120
0	275	181.872232973828	121
0	276	183.75749665198	122
0	277	185.740635019048	123
0	278	187.393541968214	124
0	280	189.27706365685	125
0	281	190.836014449848	126
0	287	192.053921771255	127
0	289	194.048872033852	128
0	293	195.743024578803	129
0	296	197.595287505091	130
0	297	198.803329122039	131
0	299	200.15654301785	132
0	300	201.588676118544	133
0	302	203.413566605207	134
0	304	204.877015863099	135
0	305	206.076912044101	136
0	306	207.767772093202	137
0	307	209.017341781194	138
0	308	210.160337010883	139
0	309	211.29161623355	140
0	311	212.320765553992	141
0	312	214.000186966751	142
0	313	215.474079873665	143
0	314	217.048526215852	144
0	316	218.41979738839	145
0	318	219.545957496176	146
0	319	221.382701025596	147
0	321	223.285997182382	148
0	322	225.136427013222	149
0	325	226.804526347685	150
0	326	228.271863025631	151
0	327	230.231569021027	152
0	329	231.924902847986	153
0	332	232.968392547936	154
0	334	234.525252717797	155
0	335	236.390548060898	156
0	336	238.13608687559	157
0	337	239.501352909504	158
1	3	1.333201129842	1
1	9	3.199286473592	2
1	16	6.024772239302	3
1	35	23.235702025724	4
1	43	27.640776935242	5
1	53	33.817151018226	6
1	62	37.857273117922	7
1	70	43.057316897019	8
1	78	45.979737999952	9
1	86	51.954495526545	10
1	98	61.870781287384	11
1	102	65.338079332887	12
1	110	70.656412131225	13
1	116	75.378050539873	14
1	122	77.362314631242	15
1	143	95.171591576446	16
1	146	96.330560415589	17
1	150	99.533004965793	18
1	155	101.255665594855	19
1	159	103.856364348202	20
1	171	116.866691822383	21
1	175	118.822597489229	22
1	180	120.258071096716	23
1	193	130.586680750486	24
1	204	139.004846154327	25
1	214	145.382542077605	26
1	220	146.756607236326	27
1	224	148.919148174906	28
1	229	152.535524451794	29
1	237	155.820724896831	30
1	249	163.265689970264	31
1	255	167.847050466717	32
1	258	169.846376148321	33
1	261	171.514615980206	34
1	271	177.258242105394	35
1	282	190.980432993437	36
1	290	194.343276106951	37
1	294	195.906206938755	38
1	323	225.290230679645	39
1	330	232.168811192428	40
2	3	1.333201129842	1
2	9	3.199286473592	2
2	16	6.024772239302	3
2	35	23.235702025724	4
2	43	27.640776935242	5
2	53	33.817151018226	6
2	62	37.857273117922	7
2	70	43.057316897019	8
2	78	45.979737999952	9
2	86	51.954495526545	10
2	98	61.870781287384	11
2	102	65.338079332887	12
2	110	70.656412131225	13
2	116	75.378050539873	14
2	122	77.362314631242	15
2	143	95.171591576446	16
2	146	96.330560415589	17
2	150	99.533004965793	18
2	155	101.255665594855	19
2	159	103.856364348202	20
2	171	116.866691822383	21
2	175	118.822597489229	22
2	180	120.258071096716	23
2	193	130.586680750486	24
2	204	139.004846154327	25
2	214	145.382542077605	26
2	220	146.756607236326	27
2	224	148.919148174906	28
2	229	152.535524451794	29
2	237	155.820724896831	30
2	249	163.265689970264	31
2	255	167.847050466717	32
2	258	169.846376148321	33
2	261	171.514615980206	34
2	271	177.258242105394	35
2	282	190.980432993437	36
2	290	194.343276106951	37
2	294	195.906206938755	38
2	323	225.290230679645	39
2	330	232.168811192428	40
3	4	1.535303458122	1
3	10	3.359983656116	2
3	17	6.183886874782	3
3	36	23.441697001943	4
3	44	27.792058220006	5
3	54	33.942749053178	6
3	63	38.062845445411	7
3	71	43.175995900378	8
3	79	46.265781882166	9
3	87	52.160104840791	10
3	103	65.480469987982	11
3	117	75.66458712101	12
3	123	77.50588994173	13
3	151	99.652787721929	14
3	172	117.059440779482	15
3	176	119.073931274947	16
3	181	120.39316853075	17
3	194	130.832672696977	18
3	205	139.289021931346	19
3	215	145.641242351021	20
3	230	152.784353689757	21
3	238	155.965549005829	22
3	250	163.409568837194	23
3	262	171.648514443709	24
3	283	191.249076505688	25
3	291	194.592673368285	26
4	4	1.535303458122	1
4	10	3.359983656116	2
4	17	6.183886874782	3
4	36	23.441697001943	4
4	44	27.792058220006	5
4	54	33.942749053178	6
4	63	38.062845445411	7
4	71	43.175995900378	8
4	79	46.265781882166	9
4	87	52.160104840791	10
4	103	65.480469987982	11
4	117	75.66458712101	12
4	123	77.50588994173	13
4	151	99.652787721929	14
4	172	117.059440779482	15
4	176	119.073931274947	16
4	181	120.39316853075	17
4	194	130.832672696977	18
4	205	139.289021931346	19
4	215	145.641242351021	20
4	230	152.784353689757	21
4	238	155.965549005829	22
4	250	163.409568837194	23
4	262	171.648514443709	24
4	283	191.249076505688	25
4	291	194.592673368285	26
5	5	1.706205381015	1
5	11	3.587999084423	2
5	18	6.397666264908	3
5	37	23.62520660554	4
5	45	28.09077881547	5
5	55	34.122354108376	6
5	64	38.306233432426	7
5	72	43.472795054343	8
5	80	46.376835322162	9
5	88	52.415927609936	10
5	104	65.757983911492	11
5	118	75.960337465264	12
5	124	77.728228839346	13
5	152	99.881209465211	14
5	177	119.327225655911	15
5	182	120.505063192883	16
5	206	139.532452136992	17
5	216	145.878034512751	18
5	231	153.047002381204	19
5	239	156.263136928394	20
5	263	171.860419703315	21
5	284	191.378204880592	22
6	5	1.706205381015	1
6	11	3.587999084423	2
6	18	6.397666264908	3
6	37	23.62520660554	4
6	45	28.09077881547	5
6	55	34.122354108376	6
6	64	38.306233432426	7
6	72	43.472795054343	8
6	80	46.376835322162	9
6	88	52.415927609936	10
6	104	65.757983911492	11
6	118	75.960337465264	12
6	124	77.728228839346	13
6	152	99.881209465211	14
6	177	119.327225655911	15
6	182	120.505063192883	16
6	206	139.532452136992	17
6	216	145.878034512751	18
6	231	153.047002381204	19
6	239	156.263136928394	20
6	263	171.860419703315	21
6	284	191.378204880592	22
7	6	1.845546449364	1
7	12	3.79853608159	2
7	19	6.585054753083	3
7	38	23.885997721543	4
7	46	28.260685336886	5
7	56	34.394015703762	6
7	65	38.550476412813	7
7	73	43.66665248873	8
7	89	52.699677968584	9
7	105	66.015805461484	10
7	119	76.244704022403	11
7	125	77.931189411195	12
7	183	120.68594099332	13
7	207	139.737683263467	14
7	217	146.119632097996	15
7	232	153.165196898215	16
7	240	156.380816687912	17
7	264	172.026757126253	18
7	285	191.557645774141	19
8	6	1.845546449364	1
8	12	3.79853608159	2
8	19	6.585054753083	3
8	38	23.885997721543	4
8	46	28.260685336886	5
8	56	34.394015703762	6
8	65	38.550476412813	7
8	73	43.66665248873	8
8	89	52.699677968584	9
8	105	66.015805461484	10
8	119	76.244704022403	11
8	125	77.931189411195	12
8	183	120.68594099332	13
8	207	139.737683263467	14
8	217	146.119632097996	15
8	232	153.165196898215	16
8	240	156.380816687912	17
8	264	172.026757126253	18
8	285	191.557645774141	19
9	7	2.088330360334	1
9	13	3.934106270632	2
9	20	6.7286818316	3
9	39	24.10619851629	4
9	47	28.419844639383	5
9	57	34.581207962911	6
9	66	38.75187054629	7
9	74	43.872412572154	8
9	90	52.96668788967	9
9	106	66.151256761733	10
9	120	76.362306157062	11
9	126	78.145291889071	12
9	184	120.797993168643	13
9	208	139.943839760823	14
9	218	146.294961678086	15
9	233	153.295562504235	16
9	241	156.565907359108	17
9	265	172.170144722257	18
9	286	191.779574225014	19

