version 3
run General-4-20231013-11:46:29-28182
attr configname General
attr datetime 20231013-11:46:29
attr datetimef 20231013-114629
attr experiment General
attr inifile omnetpp.ini
attr iterationvars ""
attr iterationvarsd ""
attr iterationvarsf ""
attr measurement ""
attr network Multihop
attr processid 28182
attr repetition 4
attr replication #4
attr resultdir results
attr runnumber 4
attr seedset 4
config network Multihop
config Multihop.node[*].transmissionTime "uniform(1s, 2s)"
config Multihop.node[*].delayTime "uniform(0.01s, 0.2s)"
config Multihop.node[0].lossProbability 0.5
config Multihop.node[1].lossProbability 0.6
config Multihop.node[2].lossProbability 0.7
config Multihop.node[3].lossProbability 0.1
config Multihop.node[4].lossProbability 0.2
config Multihop.node[5].lossProbability 0.1
config record-eventlog true
config sim-time-limit 240s
config repeat 5

vector 0 Multihop.node[0] txVector ETV
vector 1 Multihop.node[1] rxVector ETV
vector 2 Multihop.node[1] txVector ETV
vector 3 Multihop.node[2] rxVector ETV
vector 4 Multihop.node[2] txVector ETV
vector 5 Multihop.node[3] rxVector ETV
vector 6 Multihop.node[3] txVector ETV
vector 7 Multihop.node[4] rxVector ETV
vector 8 Multihop.node[4] txVector ETV
vector 9 Multihop.node[5] rxVector ETV
0	0	0	1
0	1	0.193735669288	2
0	7	1.366430994277	3
0	12	2.372661251263	4
0	13	3.945017743078	5
0	16	5.928418416451	6
0	19	6.937404510952	7
0	20	8.581318774182	8
0	22	10.017465422783	9
0	25	11.803771407032	10
0	26	13.245119940411	11
0	27	14.310829479169	12
0	33	15.478801662955	13
0	35	16.739773741845	14
0	36	17.897997149421	15
0	37	19.443199803276	16
0	38	20.967603887353	17
0	39	22.605214136109	18
0	40	24.006709578602	19
0	41	25.65651469181	20
0	42	27.053414695353	21
0	45	28.276447215971	22
0	47	29.628120927528	23
0	48	31.314788009195	24
0	49	32.568467662126	25
0	50	34.123208526677	26
0	51	35.748139376674	27
0	52	37.643640538367	28
0	55	38.87978186078	29
0	56	40.377575981585	30
0	57	41.560021382678	31
0	59	43.507095409479	32
0	60	45.337283506911	33
0	63	47.035449111756	34
0	65	48.411868582401	35
0	68	50.145309727327	36
0	70	51.22528896729	37
0	71	52.470742677725	38
0	72	54.203336129817	39
0	73	56.097987423106	40
0	76	57.198367850077	41
0	78	58.361239571976	42
0	80	60.311594231906	43
0	81	62.079352273061	44
0	82	63.127886412819	45
0	85	64.434899084424	46
0	88	65.563834418231	47
0	90	67.253478527922	48
0	93	69.190770008057	49
0	94	70.555323178801	50
0	96	71.732731160396	51
0	97	72.921756914272	52
0	99	74.242372561167	53
0	101	75.787749475255	54
0	102	77.048671632926	55
0	103	78.461143845846	56
0	104	79.880177886379	57
0	105	81.782599745239	58
0	106	83.762216008422	59
0	107	85.385784847117	60
0	110	87.322919352599	61
0	112	88.811090445066	62
0	113	89.869970536245	63
0	114	91.481792355342	64
0	115	92.605806976477	65
0	116	94.365336505849	66
0	118	96.120695899161	67
0	120	98.052384920339	68
0	121	99.994970775829	69
0	122	101.460460452517	70
0	127	102.47088712446	71
0	129	104.054430656057	72
0	132	105.958807277881	73
0	134	107.462708261019	74
0	138	108.597453907054	75
0	139	109.696781667803	76
0	141	111.632675501906	77
0	142	113.040297178241	78
0	143	114.82182830122	79
0	148	116.337599979403	80
0	149	117.747191368524	81
0	152	119.312535729181	82
0	153	120.44728833499	83
0	156	121.726520275386	84
0	157	123.555938223764	85
0	160	125.343596873726	86
0	161	126.788137534787	87
0	164	128.082770093265	88
0	165	129.405345073356	89
0	166	131.340635929177	90
0	170	132.937393816807	91
0	172	134.627179110809	92
0	173	136.483362879292	93
0	174	138.367560742111	94
0	175	140.004409410213	95
0	177	141.020893028392	96
0	178	142.242473952625	97
0	180	144.126516339522	98
0	181	145.438721373597	99
0	182	146.557166893188	100
0	183	147.932507038269	101
0	184	148.962281036343	102
0	185	150.500062705868	103
0	186	152.445891001646	104
0	189	153.53400156732	105
0	190	155.467380735942	106
0	191	157.201899791288	107
0	192	159.026720715605	108
0	195	160.773969158681	109
0	198	161.969200316735	110
0	201	163.204578387004	111
0	203	164.248500895139	112
0	204	166.107221744873	113
0	205	167.446446650114	114
0	206	168.839693377411	115
0	207	170.110058859142	116
0	209	171.361557325267	117
0	211	172.949191731552	118
0	213	173.974593433004	119
0	214	175.922919314273	120
0	217	177.184761535295	121
0	218	178.733566657792	122
0	219	180.333364147379	123
0	222	181.537675521023	124
0	228	182.718149071944	125
0	229	184.546257126995	126
0	231	185.726106762805	127
0	232	187.276381987764	128
0	238	188.853614054306	129
0	239	190.087394484237	130
0	240	191.47097449369	131
0	241	192.513873022666	132
0	242	194.352583723293	133
0	243	195.756393983412	134
0	246	197.108801896369	135
0	247	198.191509507282	136
0	250	200.143178099452	137
0	251	201.565834018553	138
0	253	202.65650858233	139
0	256	204.191528748872	140
0	258	205.593227837386	141
0	260	206.948849495419	142
0	261	208.592158022255	143
0	262	210.202264418977	144
0	264	211.60902024518	145
0	266	213.339235576487	146
0	268	215.154401966057	147
0	270	216.301897542238	148
0	273	217.370866976365	149
0	276	218.374739614002	150
0	277	219.738716935193	151
0	278	221.316080631375	152
0	284	223.273840383546	153
0	285	224.306899851108	154
0	291	225.735054831639	155
0	294	227.301534865903	156
0	295	228.620960056935	157
0	297	230.000238771471	158
0	298	231.56127133585	159
0	299	233.133096029437	160
0	300	234.284585278402	161
0	302	235.776901205922	162
0	305	237.435936733069	163
0	311	238.678082379432	164
0	313	239.797564295971	165
1	2	0.407709797404	1
1	8	1.519087120353	2
1	14	4.123702047947	3
1	17	6.192688488981	4
1	23	10.135023691571	5
1	28	14.454243113821	6
1	43	27.281958757408	7
1	53	37.822582720189	8
1	61	45.526471005183	9
1	66	48.682502875885	10
1	74	56.305786878189	11
1	83	63.25875185549	12
1	86	64.653510945866	13
1	91	67.539555458444	14
1	108	85.511589829389	15
1	123	101.715429245672	16
1	130	104.170867403328	17
1	135	107.624477838649	18
1	144	114.999115952965	19
1	150	118.002138908679	20
1	154	120.697896834666	21
1	158	123.815417362613	22
1	162	126.967741401005	23
1	167	131.625433525766	24
1	187	152.640464789574	25
1	193	159.200532103136	26
1	196	160.961485789804	27
1	199	162.247565820492	28
1	215	176.103567719394	29
1	220	180.62609727786	30
1	223	181.791977887841	31
1	233	187.536862097764	32
1	244	195.974194087229	33
1	248	198.331250626442	34
1	254	202.769839979222	35
1	271	216.495611361499	36
1	274	217.548380936201	37
1	279	221.503873393083	38
1	286	224.456222825687	39
1	292	225.868465991862	40
1	303	235.897868975026	41
1	306	237.636538777853	42
2	2	0.407709797404	1
2	8	1.519087120353	2
2	14	4.123702047947	3
2	17	6.192688488981	4
2	23	10.135023691571	5
2	28	14.454243113821	6
2	43	27.281958757408	7
2	53	37.822582720189	8
2	61	45.526471005183	9
2	66	48.682502875885	10
2	74	56.305786878189	11
2	83	63.25875185549	12
2	86	64.653510945866	13
2	91	67.539555458444	14
2	108	85.511589829389	15
2	123	101.715429245672	16
2	130	104.170867403328	17
2	135	107.624477838649	18
2	144	114.999115952965	19
2	150	118.002138908679	20
2	154	120.697896834666	21
2	158	123.815417362613	22
2	162	126.967741401005	23
2	167	131.625433525766	24
2	187	152.640464789574	25
2	193	159.200532103136	26
2	196	160.961485789804	27
2	199	162.247565820492	28
2	215	176.103567719394	29
2	220	180.62609727786	30
2	223	181.791977887841	31
2	233	187.536862097764	32
2	244	195.974194087229	33
2	248	198.331250626442	34
2	254	202.769839979222	35
2	271	216.495611361499	36
2	274	217.548380936201	37
2	279	221.503873393083	38
2	286	224.456222825687	39
2	292	225.868465991862	40
2	303	235.897868975026	41
2	306	237.636538777853	42
3	3	0.68027777693	1
3	9	1.677153768945	2
3	29	14.70358534525	3
3	124	101.869109656674	4
3	136	107.824151770604	5
3	145	115.2021568891	6
3	168	131.788730900871	7
3	224	182.023684462531	8
3	234	187.699958281775	9
3	280	221.659668870993	10
3	287	224.662326168158	11
3	307	237.868697263707	12
4	3	0.68027777693	1
4	9	1.677153768945	2
4	29	14.70358534525	3
4	124	101.869109656674	4
4	136	107.824151770604	5
4	145	115.2021568891	6
4	168	131.788730900871	7
4	224	182.023684462531	8
4	234	187.699958281775	9
4	280	221.659668870993	10
4	287	224.662326168158	11
4	307	237.868697263707	12
5	4	0.905994540572	1
5	10	1.86976415956	2
5	30	14.891189678033	3
5	125	101.986113352469	4
5	146	115.477531395966	5
5	225	182.152789006388	6
5	235	187.833288239096	7
5	281	221.862946741454	8
5	288	224.896025962912	9
5	308	237.999895735561	10
6	4	0.905994540572	1
6	10	1.86976415956	2
6	30	14.891189678033	3
6	125	101.986113352469	4
6	146	115.477531395966	5
6	225	182.152789006388	6
6	235	187.833288239096	7
6	281	221.862946741454	8
6	288	224.896025962912	9
6	308	237.999895735561	10
7	5	1.129530219655	1
7	31	15.101492354622	2
7	226	182.345661497296	3
7	236	187.987340727388	4
7	282	222.113668362816	5
7	289	225.184614855404	6
7	309	238.17712762823	7
8	5	1.129530219655	1
8	31	15.101492354622	2
8	226	182.345661497296	3
8	236	187.987340727388	4
8	282	222.113668362816	5
8	289	225.184614855404	6
8	309	238.17712762823	7
9	6	1.266408412499	1
9	32	15.389630955762	2
9	227	182.59571256365	3
9	237	188.121089315449	4
9	283	222.319618441007	5
9	290	225.448182302717	6
9	310	238.388003733034	7

