version 3
run General-0-20231013-11:46:29-28182
attr configname General
attr datetime 20231013-11:46:29
attr datetimef 20231013-114629
attr experiment General
attr inifile omnetpp.ini
attr iterationvars ""
attr iterationvarsd ""
attr iterationvarsf ""
attr measurement ""
attr network Multihop
attr processid 28182
attr repetition 0
attr replication #0
attr resultdir results
attr runnumber 0
attr seedset 0
config network Multihop
config Multihop.node[*].transmissionTime "uniform(1s, 2s)"
config Multihop.node[*].delayTime "uniform(0.01s, 0.2s)"
config Multihop.node[0].lossProbability 0.5
config Multihop.node[1].lossProbability 0.6
config Multihop.node[2].lossProbability 0.7
config Multihop.node[3].lossProbability 0.1
config Multihop.node[4].lossProbability 0.2
config Multihop.node[5].lossProbability 0.1
config record-eventlog true
config sim-time-limit 240s
config repeat 5

vector 0 Multihop.node[0] txVector ETV
vector 1 Multihop.node[1] rxVector ETV
vector 2 Multihop.node[1] txVector ETV
vector 3 Multihop.node[2] rxVector ETV
vector 4 Multihop.node[2] txVector ETV
vector 5 Multihop.node[3] rxVector ETV
vector 6 Multihop.node[3] txVector ETV
vector 7 Multihop.node[4] rxVector ETV
vector 8 Multihop.node[4] txVector ETV
vector 9 Multihop.node[5] rxVector ETV
0	0	0	1
0	1	0.114274565438	2
0	4	1.958540309528	3
0	7	3.582104005925	4
0	8	5.473877007682	5
0	9	7.43753977174	6
0	10	8.82098129306	7
0	11	10.612706326489	8
0	13	12.092683497891	9
0	14	14.018280131119	10
0	16	15.35567629275	11
0	22	16.723917830112	12
0	24	18.185397192911	13
0	27	19.30367161667	14
0	28	20.841044844901	15
0	30	22.36289317308	16
0	31	23.836493595811	17
0	32	25.022825940354	18
0	34	26.478976276312	19
0	36	27.497766074333	20
0	38	29.109861796796	21
0	41	31.053609872078	22
0	42	32.666673333924	23
0	43	34.569021912133	24
0	46	35.629247378632	25
0	48	36.839629940297	26
0	49	38.590316079165	27
0	50	40.198146745869	28
0	51	41.523193973423	29
0	57	42.961795486816	30
0	59	44.543645819024	31
0	60	46.009956591836	32
0	61	47.254382179891	33
0	63	48.5923897974	34
0	65	49.909591542165	35
0	67	51.859162593567	36
0	69	52.872734235441	37
0	71	54.546393866492	38
0	73	56.424587335046	39
0	77	57.480302027966	40
0	78	58.763108987435	41
0	80	60.122553456416	42
0	81	61.241281170705	43
0	83	63.121757063856	44
0	86	64.338579197023	45
0	88	65.847548157982	46
0	90	67.768705769982	47
0	91	69.698001967817	48
0	92	71.01657092276	49
0	93	72.683981299009	50
0	96	74.331155437585	51
0	97	75.514346801052	52
0	98	77.100859734072	53
0	101	78.265800194657	54
0	102	79.943616733961	55
0	108	81.647354014758	56
0	114	83.219605916254	57
0	116	84.335807826211	58
0	118	85.747627968042	59
0	120	86.997424243091	60
0	121	88.879159602642	61
0	124	90.467624686032	62
0	127	91.698157709164	63
0	129	93.173025230716	64
0	130	94.474600046945	65
0	132	95.762591050777	66
0	133	97.380606477687	67
0	135	99.259058668816	68
0	136	100.557340996645	69
0	137	102.127305908201	70
0	138	103.718178671159	71
0	141	104.751803764913	72
0	142	106.183222199397	73
0	143	108.079768797688	74
0	144	109.44733066934	75
0	145	110.883195588671	76
0	151	112.143536517237	77
0	155	114.142383520099	78
0	156	115.650698970378	79
0	161	116.774518952778	80
0	162	117.807741339159	81
0	163	119.790316295883	82
0	165	121.24385897613	83
0	167	123.110241302129	84
0	169	124.966044645131	85
0	170	126.730956343076	86
0	171	128.675079863825	87
0	173	129.846709541352	88
0	175	130.901047527398	89
0	176	132.080537795396	90
0	177	133.251524388166	91
0	183	134.475449070874	92
0	186	135.975475364671	93
0	189	137.967871760324	94
0	191	139.832153202806	95
0	193	141.796642968504	96
0	195	143.009033470487	97
0	196	144.195226475902	98
0	197	146.139598864436	99
0	199	147.591707902567	100
0	201	149.272252596754	101
0	202	150.330281759219	102
0	203	151.764698388127	103
0	204	153.076494264954	104
0	206	155.052898655252	105
0	208	156.595397432174	106
0	211	158.339231974517	107
0	217	159.946277035472	108
0	218	161.083497456347	109
0	219	162.312716779371	110
0	222	163.632733924153	111
0	224	165.463782381803	112
0	226	167.336433039351	113
0	227	168.761884576712	114
0	230	169.947520519911	115
0	233	171.163028197667	116
0	235	172.416969843047	117
0	236	174.374420699036	118
0	239	175.400083412487	119
0	240	177.130525593018	120
0	241	178.776790028043	121
0	242	179.991670764588	122
0	243	181.178128983198	123
0	246	183.041984584486	124
0	248	184.174052694185	125
0	250	185.570112397965	126
0	252	186.753392237542	127
0	253	187.918351108977	128
0	254	189.043184169871	129
0	255	190.765264830622	130
0	258	192.530590083054	131
0	262	193.614012517803	132
0	264	194.906160048511	133
0	265	196.583423355198	134
0	266	197.646461647772	135
0	267	199.202110885014	136
0	272	200.872027427261	137
0	273	202.384420892759	138
0	274	203.964868023363	139
0	277	205.841373265791	140
0	280	207.073074891302	141
0	282	208.872277475964	142
0	284	210.746565445862	143
0	285	212.591115523665	144
0	291	214.208992215642	145
0	293	215.962561820238	146
0	294	217.602034336724	147
0	295	218.970618939795	148
0	296	220.107519213878	149
0	297	221.929636948811	150
0	298	223.119484862615	151
0	299	224.630803844961	152
0	300	225.855120868957	153
0	306	227.261241356446	154
0	308	228.594386512716	155
0	309	229.896217387006	156
0	310	231.671437169262	157
0	311	233.597650101944	158
0	312	234.922960411129	159
0	313	236.875831082301	160
0	315	237.887258537417	161
0	318	239.034205179034	162
1	2	0.360160544783	1
1	5	2.149034720918	2
1	17	15.469517788583	3
1	25	18.424384304307	4
1	39	29.293294702626	5
1	44	34.697885178926	6
1	52	41.640494804274	7
1	74	56.720171942298	8
1	84	63.24394508905	9
1	94	72.81902289279	10
1	99	77.214680168676	11
1	103	80.104918248004	12
1	109	81.927601308725	13
1	122	89.12074060503	14
1	125	90.759280577586	15
1	139	103.937300469764	16
1	146	111.162661026729	17
1	152	112.342693859854	18
1	157	115.792399998788	19
1	178	133.449580073641	20
1	184	134.616740960609	21
1	187	136.130674999504	22
1	209	156.718174862028	23
1	212	158.551182024166	24
1	220	162.590218006139	25
1	228	169.040098732925	26
1	231	170.149368157246	27
1	237	174.574053498443	28
1	244	181.441569233545	29
1	256	190.881050894116	30
1	259	192.681905676992	31
1	268	199.313866498338	32
1	275	204.224501032506	33
1	278	206.037855341058	34
1	286	212.738040545371	35
1	301	225.983711321321	36
1	316	238.05512912317	37
2	2	0.360160544783	1
2	5	2.149034720918	2
2	17	15.469517788583	3
2	25	18.424384304307	4
2	39	29.293294702626	5
2	44	34.697885178926	6
2	52	41.640494804274	7
2	74	56.720171942298	8
2	84	63.24394508905	9
2	94	72.81902289279	10
2	99	77.214680168676	11
2	103	80.104918248004	12
2	109	81.927601308725	13
2	122	89.12074060503	14
2	125	90.759280577586	15
2	139	103.937300469764	16
2	146	111.162661026729	17
2	152	112.342693859854	18
2	157	115.792399998788	19
2	178	133.449580073641	20
2	184	134.616740960609	21
2	187	136.130674999504	22
2	209	156.718174862028	23
2	212	158.551182024166	24
2	220	162.590218006139	25
2	228	169.040098732925	26
2	231	170.149368157246	27
2	237	174.574053498443	28
2	244	181.441569233545	29
2	256	190.881050894116	30
2	259	192.681905676992	31
2	268	199.313866498338	32
2	275	204.224501032506	33
2	278	206.037855341058	34
2	286	212.738040545371	35
2	301	225.983711321321	36
2	316	238.05512912317	37
3	18	15.761377267904	1
3	53	41.938285832325	2
3	75	56.915892192939	3
3	104	80.269728770168	4
3	110	82.079986818549	5
3	147	111.374695305015	6
3	153	112.481089037741	7
3	158	116.063521561975	8
3	179	133.625196892566	9
3	213	158.796974441401	10
3	260	192.896822246569	11
3	269	199.573045551291	12
3	287	212.85055554816	13
3	302	226.201861365069	14
4	18	15.761377267904	1
4	53	41.938285832325	2
4	75	56.915892192939	3
4	104	80.269728770168	4
4	110	82.079986818549	5
4	147	111.374695305015	6
4	153	112.481089037741	7
4	158	116.063521561975	8
4	179	133.625196892566	9
4	213	158.796974441401	10
4	260	192.896822246569	11
4	269	199.573045551291	12
4	287	212.85055554816	13
4	302	226.201861365069	14
5	19	15.898043915614	1
5	54	42.06767434562	2
5	105	80.4620535023	3
5	111	82.371009130305	4
5	148	111.569801278015	5
5	159	116.326912164435	6
5	180	133.911532338171	7
5	214	158.996178907031	8
5	270	199.736574271096	9
5	288	213.026529915391	10
5	303	226.377146409971	11
6	19	15.898043915614	1
6	54	42.06767434562	2
6	105	80.4620535023	3
6	111	82.371009130305	4
6	148	111.569801278015	5
6	159	116.326912164435	6
6	180	133.911532338171	7
6	214	158.996178907031	8
6	270	199.736574271096	9
6	288	213.026529915391	10
6	303	226.377146409971	11
7	20	16.173360493317	1
7	55	42.21736092975	2
7	106	80.715713773673	3
7	112	82.565962952226	4
7	149	111.698719404131	5
7	181	134.155371074046	6
7	215	159.192821685477	7
7	289	213.164676678795	8
7	304	226.637032237029	9
8	20	16.173360493317	1
8	55	42.21736092975	2
8	106	80.715713773673	3
8	112	82.565962952226	4
8	149	111.698719404131	5
8	181	134.155371074046	6
8	215	159.192821685477	7
8	289	213.164676678795	8
8	304	226.637032237029	9
9	21	16.37334602092	1
9	56	42.358009736872	2
9	107	80.900972446537	3
9	113	82.836780598787	4
9	150	111.875658619633	5
9	182	134.271420469592	6
9	216	159.475041122353	7
9	290	213.461224262307	8
9	305	226.825192995928	9

