version 3
run General-0-20231004-13:31:55-12089
attr configname General
attr datetime 20231004-13:31:55
attr datetimef 20231004-133155
attr experiment General
attr inifile omnetpp.ini
attr iterationvars ""
attr iterationvarsd ""
attr iterationvarsf ""
attr measurement ""
attr network Multihop
attr processid 12089
attr repetition 0
attr replication #0
attr resultdir results
attr runnumber 0
attr seedset 0
config network Multihop
config Multihop.node[*].transmissionTime "uniform(1s, 2s)"
config Multihop.node[*].delayTime "uniform(0.01s, 0.2s)"
config Multihop.node[0].lossProbability "uniform(0, 0.2)"
config Multihop.node[1].lossProbability "uniform(0, 0.2)"
config Multihop.node[2].lossProbability "uniform(0, 0.2)"
config Multihop.node[3].lossProbability "uniform(0, 0.2)"
config Multihop.node[4].lossProbability 0.9
config Multihop.node[5].lossProbability 0.9
config record-eventlog true
config sim-time-limit 240s

vector 0 Multihop.node[0] txVector ETV
vector 1 Multihop.node[1] rxVector ETV
vector 2 Multihop.node[1] txVector ETV
vector 3 Multihop.node[2] rxVector ETV
vector 4 Multihop.node[2] txVector ETV
vector 5 Multihop.node[3] rxVector ETV
vector 6 Multihop.node[3] txVector ETV
vector 7 Multihop.node[4] rxVector ETV
vector 8 Multihop.node[4] txVector ETV
vector 9 Multihop.node[5] rxVector ETV
0	0	0	1
0	1	0.122640477114	2
0	3	0.295650144885	3
0	6	0.428370026753	4
0	10	0.621465951924	5
0	12	0.739394419038	6
0	15	0.813499689748	7
0	20	1.005359169069	8
0	23	1.114249890362	9
0	27	1.24583488359	10
0	29	1.334620652403	11
0	34	1.484635106208	12
0	37	1.610933293476	13
0	40	1.750479150067	14
0	41	1.77934241686	15
0	47	1.973606139894	16
0	49	2.052711186842	17
0	51	2.146045474387	18
0	55	2.280075634986	19
0	58	2.368805666708	20
0	61	2.443027114035	21
0	64	2.490377761808	22
0	65	2.518827003327	23
0	71	2.656822333227	24
0	75	2.807282413683	25
0	78	3.003403892474	26
0	82	3.144249517863	27
0	84	3.261635402335	28
0	86	3.368339504917	29
0	90	3.553359451197	30
0	92	3.588401044978	31
0	94	3.648699776198	32
0	95	3.662520210802	33
0	100	3.742783748993	34
0	109	3.935599572527	35
0	115	4.078500635248	36
0	119	4.148012118352	37
0	124	4.259321306172	38
0	128	4.358646421969	39
0	133	4.510988690819	40
0	137	4.633254515781	41
0	140	4.725224018333	42
0	142	4.818038353006	43
0	147	4.930072631292	44
0	152	5.129853561836	45
0	154	5.171554590246	46
0	158	5.334945192706	47
0	161	5.531634434484	48
0	162	5.551246175914	49
0	166	5.746595263212	50
0	169	5.935978732154	51
0	171	6.038993031148	52
0	173	6.083096182068	53
0	174	6.181151867543	54
0	177	6.256768686468	55
0	178	6.272818082014	56
0	183	6.377823077836	57
0	189	6.48959330932	58
0	191	6.541155689214	59
0	199	6.644342861566	60
0	205	6.839859695723	61
0	212	6.978505195223	62
0	213	6.992428886124	63
0	218	7.169930112892	64
0	220	7.179940629461	65
0	228	7.341569527226	66
0	231	7.392098802455	67
0	232	7.431300720115	68
0	239	7.512393016039	69
0	242	7.57500282895	70
0	250	7.692432877412	71
0	256	7.84467896607	72
0	261	8.037446878937	73
0	262	8.050568508879	74
0	263	8.062324122203	75
0	267	8.221503175156	76
0	272	8.341788129971	77
0	281	8.532158706108	78
0	282	8.544673708897	79
0	289	8.718512567224	80
0	293	8.809875094339	81
0	300	9.006208032309	82
0	302	9.084469601565	83
0	304	9.15181746768	84
0	305	9.186990117956	85
0	312	9.378035545479	86
0	318	9.542016123533	87
0	321	9.60337842521	88
0	323	9.703909093949	89
0	326	9.80057580112	90
0	330	9.892929206616	91
0	336	10.028336780336	92
0	339	10.04017753333	93
0	342	10.137550150288	94
0	346	10.162171874639	95
0	347	10.205253144914	96
0	349	10.221972007793	97
0	353	10.262346752802	98
0	359	10.33422685844	99
0	366	10.431040028591	100
0	375	10.572144782421	101
0	380	10.669191159153	102
0	387	10.788583879029	103
0	392	10.918074582527	104
0	396	11.066336886564	105
0	398	11.143856967986	106
0	401	11.254908312562	107
0	404	11.28383514853	108
0	407	11.38012600435	109
0	409	11.434347389462	110
0	412	11.54359779066	111
0	416	11.657070057227	112
0	419	11.738553107693	113
0	421	11.935064646935	114
0	424	12.133230198096	115
0	427	12.264594931473	116
0	428	12.287002730655	117
0	432	12.449351599199	118
0	438	12.585864830887	119
0	442	12.674687636224	120
0	449	12.825037341278	121
0	451	12.891383031778	122
0	454	12.948772839963	123
0	458	13.026813260232	124
0	464	13.204340100921	125
0	467	13.246992189823	126
0	471	13.323847596947	127
0	477	13.438066225163	128
0	483	13.637002374902	129
0	486	13.671947347661	130
0	491	13.85207066575	131
0	494	13.97459444517	132
0	499	14.089489316493	133
0	502	14.195603929523	134
0	504	14.305348314575	135
0	507	14.378714733449	136
0	508	14.397965888674	137
0	511	14.470653662814	138
0	515	14.578019478281	139
0	521	14.723019873932	140
0	523	14.786732806842	141
0	528	14.853665071003	142
0	529	14.880669034378	143
0	531	14.919858267285	144
0	539	15.102030917046	145
0	543	15.239702773309	146
0	544	15.336126149763	147
0	548	15.457986675627	148
0	554	15.598154154576	149
0	558	15.680943703298	150
0	562	15.793376167284	151
0	565	15.880216905354	152
0	574	16.06546302157	153
0	576	16.135595726282	154
0	579	16.20260122023	155
0	581	16.257829489144	156
0	588	16.39344181705	157
0	592	16.50178811647	158
0	597	16.682419965048	159
0	599	16.761235885976	160
0	601	16.772221913768	161
0	603	16.815407007292	162
0	605	16.863476228593	163
0	610	16.932233973304	164
0	619	17.118595527851	165
0	622	17.204074311087	166
0	627	17.351141576805	167
0	632	17.506408352436	168
0	633	17.52830919365	169
0	636	17.584270517652	170
0	637	17.628358430544	171
0	640	17.66064932233	172
0	651	17.849397837536	173
0	653	17.877876857347	174
0	658	17.998282423664	175
0	659	18.059793968447	176
0	660	18.091802429077	177
0	665	18.198396602485	178
0	670	18.29546581425	179
0	678	18.42691132558	180
0	684	18.574916393405	181
0	687	18.720562561506	182
0	691	18.831425985538	183
0	694	19.02366301304	184
0	695	19.039209158766	185
0	698	19.150843361158	186
0	702	19.34933739204	187
0	707	19.496237620828	188
0	708	19.548302945744	189
0	710	19.577305617593	190
0	711	19.599874015066	191
0	712	19.652179022317	192
0	715	19.692981873145	193
0	718	19.789699689289	194
0	722	19.881966688365	195
0	729	20.03466080154	196
0	736	20.232257065235	197
0	738	20.267318682337	198
0	740	20.330013333747	199
0	745	20.501865537832	200
0	749	20.627573374812	201
0	754	20.823165717711	202
0	757	20.937570826751	203
0	763	21.084785790348	204
0	767	21.257953509286	205
0	775	21.415143369497	206
0	778	21.527528385853	207
0	782	21.712852141482	208
0	786	21.824591110053	209
0	787	21.849595391767	210
0	789	21.879054004935	211
0	792	21.946851756387	212
0	794	21.977299120494	213
0	796	22.041275485521	214
0	805	22.198005945193	215
0	808	22.285583497725	216
0	814	22.430300234842	217
0	819	22.558416668272	218
0	820	22.608779196683	219
0	824	22.734931406791	220
0	826	22.772422724527	221
0	828	22.863249053403	222
0	829	22.923472277871	223
0	832	23.110627126856	224
0	835	23.273176867761	225
0	839	23.409207272329	226
0	841	23.510290337915	227
0	842	23.529666637692	228
0	846	23.683136811666	229
0	850	23.820171921809	230
0	854	23.90801990068	231
0	861	24.083757377727	232
0	865	24.185625822499	233
0	869	24.371053830175	234
0	875	24.564061316374	235
0	877	24.6093097159	236
0	882	24.773132458049	237
0	889	24.968985170924	238
0	894	25.106140194188	239
0	896	25.124734746925	240
0	902	25.242625487758	241
0	906	25.397626838755	242
0	908	25.447803249668	243
0	911	25.49483443936	244
0	917	25.630095334397	245
0	918	25.656698046391	246
0	920	25.740123053027	247
0	924	25.82002737634	248
0	930	25.936384479863	249
0	934	25.992750641828	250
0	941	26.174349074348	251
0	946	26.361485183794	252
0	949	26.437547801587	253
0	950	26.522642117271	254
0	954	26.62835420195	255
0	957	26.6797101418	256
0	963	26.822886474813	257
0	971	27.001881577273	258
0	975	27.105209775335	259
0	980	27.254824393015	260
0	984	27.414880620007	261
0	988	27.5371830423	262
0	993	27.682461251829	263
0	995	27.733089967976	264
0	996	27.745402489077	265
0	1000	27.816740101169	266
0	1001	27.845298611525	267
0	1002	27.863033560248	268
0	1006	27.916476404722	269
0	1010	27.99606282602	270
0	1013	28.040003597368	271
0	1015	28.073618487184	272
0	1018	28.104038274893	273
0	1019	28.118018787286	274
0	1021	28.136909226733	275
0	1030	28.258750636549	276
0	1040	28.435244766378	277
0	1044	28.511743407498	278
0	1046	28.545929271436	279
0	1048	28.582874553813	280
0	1051	28.678893348176	281
0	1054	28.739583098569	282
0	1058	28.839894806898	283
0	1064	29.023109590662	284
0	1066	29.056415367279	285
0	1071	29.200355498764	286
0	1073	29.221903348434	287
0	1079	29.355636585477	288
0	1080	29.370953164111	289
0	1081	29.416273707739	290
0	1082	29.450351965563	291
0	1086	29.535969715724	292
0	1091	29.621574253065	293
0	1100	29.799492347077	294
0	1103	29.977646499241	295
0	1105	30.13185356474	296
0	1109	30.323408169155	297
0	1111	30.383930239002	298
0	1116	30.540935214977	299
0	1120	30.643091017008	300
0	1126	30.774906274206	301
0	1131	30.940015492926	302
0	1132	30.964245573024	303
0	1140	31.161944515137	304
0	1143	31.234728223374	305
0	1149	31.424814381723	306
0	1152	31.584335668821	307
0	1153	31.613800462366	308
0	1155	31.655395480497	309
0	1158	31.731876038832	310
0	1161	31.772160843748	311
0	1171	31.963718838151	312
0	1172	31.993398746512	313
0	1174	32.006837054497	314
0	1177	32.099588046625	315
0	1181	32.166427239761	316
0	1188	32.363359466846	317
0	1190	32.426402097301	318
0	1194	32.516782440581	319
0	1200	32.650193942933	320
0	1202	32.730403415913	321
0	1207	32.846889027656	322
0	1210	32.915509339034	323
0	1217	33.08896836757	324
0	1219	33.172258790541	325
0	1222	33.337378786391	326
0	1223	33.366832876595	327
0	1225	33.472298961778	328
0	1226	33.510490959019	329
0	1227	33.531127432399	330
0	1233	33.727897268676	331
0	1234	33.787409037084	332
0	1240	33.941316283662	333
0	1242	33.973462420534	334
0	1246	34.102116940627	335
0	1249	34.179840519924	336
0	1250	34.222009930566	337
0	1254	34.347821906653	338
0	1257	34.45511724282	339
0	1264	34.614821235353	340
0	1268	34.797480588573	341
0	1270	34.844351625272	342
0	1274	34.963337476404	343
0	1276	35.041565923299	344
0	1284	35.22313190543	345
0	1287	35.290255626241	346
0	1291	35.390187604093	347
0	1294	35.424091723711	348
0	1298	35.504981842833	349
0	1305	35.694875205453	350
0	1309	35.861353874177	351
0	1315	36.056938645861	352
0	1320	36.190254648	353
0	1324	36.30863509697	354
0	1328	36.463011012707	355
0	1330	36.480065637826	356
0	1336	36.677031395765	357
0	1338	36.734759417275	358
0	1342	36.850777023603	359
0	1346	36.936944141647	360
0	1352	37.042599504856	361
0	1360	37.201026144913	362
0	1366	37.354616360253	363
0	1367	37.383171694023	364
0	1371	37.524021544257	365
0	1374	37.669423042695	366
0	1379	37.86122845017	367
0	1385	38.018455608705	368
0	1386	38.031046780575	369
0	1387	38.082820328077	370
0	1390	38.125107975536	371
0	1393	38.217046106659	372
0	1402	38.349699522128	373
0	1408	38.477523439151	374
0	1409	38.547105655392	375
0	1417	38.718479558992	376
0	1418	38.803764110539	377
0	1421	38.915826435295	378
0	1423	38.976495669823	379
0	1424	38.997910482338	380
0	1433	39.197882710762	381
0	1435	39.256344829161	382
0	1442	39.455969159141	383
0	1443	39.52223343515	384
0	1446	39.619222119392	385
0	1452	39.797327435522	386
0	1455	39.848771758825	387
0	1456	39.900910158607	388
0	1461	40.027812680048	389
0	1462	40.046261569669	390
0	1464	40.107856278683	391
0	1469	40.217907244142	392
0	1473	40.399312176092	393
0	1477	40.555431105911	394
0	1480	40.693021368475	395
0	1485	40.814102929416	396
0	1486	40.853123975342	397
0	1492	40.998573512958	398
0	1498	41.135335589341	399
0	1501	41.217206474565	400
0	1508	41.363905606839	401
0	1512	41.506817430676	402
0	1514	41.591079760505	403
0	1517	41.727850554836	404
0	1522	41.924139182699	405
0	1526	42.048381846106	406
0	1527	42.143261828864	407
0	1530	42.213541265523	408
0	1535	42.390930897209	409
0	1536	42.429497350452	410
0	1542	42.586188145918	411
0	1545	42.762523896867	412
0	1551	42.92895863938	413
0	1555	43.061318058908	414
0	1558	43.163999919825	415
0	1564	43.335278195675	416
0	1567	43.389682807344	417
0	1571	43.520075025327	418
0	1574	43.624424816001	419
0	1577	43.738329770629	420
0	1581	43.930148673382	421
0	1584	44.009716567305	422
0	1587	44.123639586005	423
0	1591	44.274286134809	424
0	1593	44.358250678489	425
0	1599	44.539027469505	426
0	1601	44.629932802974	427
0	1605	44.710813163277	428
0	1609	44.806817333987	429
0	1610	44.822127130919	430
0	1613	44.910336157971	431
0	1618	45.00032337273	432
0	1624	45.133997032796	433
0	1625	45.21729137077	434
0	1633	45.403813939665	435
0	1637	45.533411572217	436
0	1642	45.646394869066	437
0	1644	45.697720656814	438
0	1647	45.759729855952	439
0	1654	45.950906868744	440
0	1659	46.112874555457	441
0	1663	46.199974435283	442
0	1665	46.31035431019	443
0	1668	46.409715352938	444
0	1674	46.581252436505	445
0	1678	46.696739273991	446
0	1679	46.724381003787	447
0	1683	46.851814893803	448
0	1691	47.037759929877	449
0	1693	47.127992399079	450
0	1695	47.144219820805	451
0	1697	47.218647793024	452
0	1704	47.404195382081	453
0	1706	47.484324181199	454
0	1708	47.541371047434	455
0	1709	47.658881616076	456
0	1710	47.74872598735	457
0	1713	47.865518397017	458
0	1715	47.881778032194	459
0	1719	47.989710318771	460
0	1724	48.156801673857	461
0	1726	48.196221408025	462
0	1728	48.254721665753	463
0	1732	48.333097729306	464
0	1739	48.524762362254	465
0	1743	48.626257500633	466
0	1745	48.640921643363	467
0	1750	48.750714072504	468
0	1755	48.883379720482	469
0	1756	48.913766915621	470
0	1763	49.028566278901	471
0	1765	49.067907109251	472
0	1774	49.245928712026	473
0	1779	49.374072600687	474
0	1785	49.531100827707	475
0	1788	49.597982829784	476
0	1789	49.622066488574	477
0	1797	49.794608403352	478
0	1801	49.914443715872	479
0	1806	50.0483411496	480
0	1810	50.230287789698	481
0	1812	50.293117334703	482
0	1816	50.38987116884	483
0	1821	50.50466538558	484
0	1823	50.644528379314	485
0	1828	50.836161112235	486
0	1832	50.934650108019	487
0	1836	50.973539042821	488
0	1842	51.167277934215	489
0	1844	51.236879994791	490
0	1849	51.414489764011	491
0	1855	51.597217387914	492
0	1861	51.739024821861	493
0	1865	51.918272871013	494
0	1870	52.050657319018	495
0	1872	52.085955475712	496
0	1873	52.11135569642	497
0	1875	52.137011002939	498
0	1880	52.213028340047	499
0	1887	52.334660646083	500
0	1893	52.458056354661	501
0	1897	52.48975672226	502
0	1899	52.526529577417	503
0	1902	52.584844322422	504
0	1905	52.616198628907	505
0	1906	52.647621415585	506
0	1907	52.668148877105	507
0	1919	52.830520751971	508
0	1924	52.922187203277	509
0	1927	52.986370438827	510
0	1938	53.172964489363	511
0	1941	53.309565365776	512
0	1944	53.506373885286	513
0	1946	53.645827663637	514
0	1949	53.824076965075	515
0	1953	53.951978344206	516
0	1956	54.07878326719	517
0	1958	54.11803239886	518
0	1959	54.129211048394	519
0	1967	54.301211505543	520
0	1973	54.41261889863	521
0	1981	54.605818751982	522
0	1985	54.798878051333	523
0	1988	54.883373241892	524
0	1990	54.942072169291	525
0	1995	55.084714280035	526
0	1998	55.151328629883	527
0	2003	55.283361702793	528
0	2010	55.459649628719	529
0	2014	55.560870112641	530
0	2017	55.638681857564	531
0	2022	55.824648719916	532
0	2024	55.864947847181	533
0	2028	55.985945557144	534
0	2031	56.096998784437	535
0	2033	56.143511701764	536
0	2034	56.160203465526	537
0	2036	56.201031309131	538
0	2044	56.373051179207	539
0	2052	56.569926708135	540
0	2056	56.655201774562	541
0	2059	56.743074690072	542
0	2064	56.872606657637	543
0	2067	56.939961111427	544
0	2073	57.13755977405	545
0	2077	57.331534023178	546
0	2081	57.468449667799	547
0	2082	57.520887728573	548
0	2086	57.683804090961	549
0	2089	57.820188832124	550
0	2091	57.862876843774	551
0	2094	57.965332001423	552
0	2096	58.04543741373	553
0	2100	58.22049584339	554
0	2106	58.414456079701	555
0	2109	58.489818013344	556
0	2112	58.54655622871	557
0	2116	58.662366798225	558
0	2118	58.710691836279	559
0	2125	58.849962184048	560
0	2129	58.956628971762	561
0	2133	59.068446738025	562
0	2135	59.140372285772	563
0	2139	59.220857204491	564
0	2142	59.308571290426	565
0	2147	59.441010246594	566
0	2152	59.637675080374	567
0	2155	59.68113481035	568
0	2158	59.817012560014	569
0	2159	59.877186381275	570
0	2163	59.989476384919	571
0	2167	60.106142141833	572
0	2171	60.3004605675	573
0	2175	60.496367900195	574
0	2177	60.596041371723	575
0	2183	60.755958206089	576
0	2187	60.891693289086	577
0	2192	61.066505678905	578
0	2197	61.261497566846	579
0	2200	61.379773276003	580
0	2203	61.510014710873	581
0	2206	61.609730822264	582
0	2211	61.803536936258	583
0	2215	61.93797370796	584
0	2219	62.05730046858	585
0	2222	62.140607782259	586
0	2226	62.233655688519	587
0	2233	62.373574444338	588
0	2234	62.43662860348	589
0	2240	62.59700481193	590
0	2243	62.680186165134	591
0	2247	62.859382067537	592
0	2248	62.883014929514	593
0	2253	63.0636185034	594
0	2257	63.140782119635	595
0	2261	63.236647980927	596
0	2267	63.399447915781	597
0	2271	63.530323929294	598
0	2273	63.578514971913	599
0	2277	63.720816470979	600
0	2282	63.86648668937	601
0	2284	63.968375687078	602
0	2286	64.028360655748	603
0	2291	64.148124882688	604
0	2295	64.243116231155	605
0	2300	64.314230460249	606
0	2306	64.435401190572	607
0	2308	64.448379651836	608
0	2311	64.509843501523	609
0	2316	64.600139415592	610
0	2322	64.739781465735	611
0	2325	64.777347215111	612
0	2332	64.905307111723	613
0	2339	65.094028447565	614
0	2343	65.227657156739	615
0	2344	65.292085438062	616
0	2349	65.418716527551	617
0	2351	65.435048000395	618
0	2358	65.553632514236	619
0	2363	65.740303652097	620
0	2366	65.776581934683	621
0	2372	65.963357447129	622
0	2375	66.116411939167	623
0	2378	66.211885629421	624
0	2383	66.369389027675	625
0	2389	66.561225075416	626
0	2391	66.614874457921	627
0	2393	66.680696218923	628
0	2397	66.870146310689	629
0	2400	66.903550443159	630
0	2405	67.03592992684	631
0	2410	67.149732422027	632
0	2415	67.272997696404	633
0	2420	67.383048705437	634
0	2424	67.53132856782	635
0	2425	67.587545602095	636
0	2427	67.636454060759	637
0	2429	67.649411167541	638
0	2430	67.665165965291	639
0	2433	67.72498991541	640
0	2437	67.771637249183	641
0	2447	67.964470432214	642
0	2454	68.155062779544	643
0	2458	68.326710152868	644
0	2459	68.342334309516	645
0	2461	68.415495922181	646
0	2463	68.453984786663	647
0	2467	68.532110911475	648
0	2470	68.571278497179	649
0	2477	68.690831562484	650
0	2483	68.85669260932	651
0	2484	68.869928278351	652
0	2490	68.989260511942	653
0	2495	69.100855065213	654
0	2496	69.129635796881	655
0	2499	69.216188401451	656
0	2501	69.313562689979	657
0	2505	69.497463328313	658
0	2511	69.677921043374	659
0	2514	69.759632777502	660
0	2518	69.903077215296	661
0	2522	70.074828668802	662
0	2526	70.266302614926	663
0	2529	70.377413594608	664
0	2534	70.514653724806	665
0	2538	70.648034543008	666
0	2542	70.747344498813	667
0	2544	70.801345716928	668
0	2548	70.853596676221	669
0	2552	70.953331849469	670
0	2561	71.152078840845	671
0	2566	71.277251495154	672
0	2568	71.309127686199	673
0	2570	71.378588842366	674
0	2576	71.550744215369	675
0	2580	71.624324891421	676
0	2582	71.690028418261	677
0	2585	71.713723646985	678
0	2588	71.779643310181	679
0	2594	71.897051146567	680
0	2599	72.094848351412	681
0	2605	72.287785539288	682
0	2608	72.359137890449	683
0	2611	72.447211880752	684
0	2613	72.486353024846	685
0	2617	72.552000781285	686
0	2622	72.710929752697	687
0	2627	72.836305647108	688
0	2630	72.945223863534	689
0	2636	73.106561192865	690
0	2637	73.134171378086	691
0	2643	73.322978532384	692
0	2648	73.488255764451	693
0	2652	73.610587618388	694
0	2655	73.725128661319	695
0	2659	73.880408933909	696
0	2660	73.968219031888	697
0	2663	74.085759528876	698
0	2665	74.169818950343	699
0	2668	74.237617078923	700
0	2672	74.387898782968	701
0	2674	74.410966573873	702
0	2675	74.426650337492	703
0	2678	74.496037258612	704
0	2686	74.62982306054	705
0	2695	74.788985671842	706
0	2702	74.980230559919	707
0	2706	75.171288550718	708
0	2708	75.221211507929	709
0	2712	75.372906618226	710
0	2717	75.556951058724	711
0	2719	75.63109152102	712
0	2721	75.788523625777	713
0	2723	75.925610992423	714
0	2726	76.075907455886	715
0	2729	76.180805138669	716
0	2733	76.318751022008	717
0	2734	76.355109156827	718
0	2736	76.384823623908	719
0	2739	76.462403879739	720
0	2742	76.565356723993	721
0	2748	76.728030329208	722
0	2752	76.86668899844	723
0	2758	77.020474463867	724
0	2760	77.052485835876	725
0	2761	77.080438418524	726
0	2763	77.111344308367	727
0	2767	77.160555179837	728
0	2777	77.331141362123	729
0	2781	77.411205923278	730
0	2782	77.449821164822	731
0	2787	77.572648882677	732
0	2789	77.627939328293	733
0	2792	77.707228450943	734
0	2794	77.746823341274	735
0	2795	77.763861812996	736
0	2799	77.813896834299	737
0	2804	77.928960245576	738
0	2811	78.1048153375	739
0	2815	78.20746409897	740
0	2819	78.337940086976	741
0	2822	78.487414465672	742
0	2823	78.498022731659	743
0	2824	78.560931833875	744
0	2828	78.668636327651	745
0	2838	78.861748609934	746
0	2843	78.964966124522	747
0	2848	79.077645115496	748
0	2853	79.183944477748	749
0	2858	79.334906755164	750
0	2861	79.52194428049	751
0	2863	79.589280305644	752
0	2868	79.744718311906	753
0	2875	79.929238371281	754
0	2877	79.959729810902	755
0	2881	80.054788686768	756
0	2884	80.220029514734	757
0	2888	80.366699662608	758
0	2889	80.417246673798	759
0	2892	80.479424873937	760
0	2893	80.505933152116	761
0	2901	80.672740650172	762
0	2903	80.726541459981	763
0	2907	80.856789671068	764
0	2908	80.879661452101	765
0	2910	80.913972501644	766
0	2918	81.103035269821	767
0	2923	81.24510199695	768
0	2924	81.262974862525	769
0	2930	81.421513259044	770
0	2935	81.555398803371	771
0	2937	81.612480130339	772
0	2941	81.811225016393	773
0	2944	81.938516733878	774
0	2948	82.13220884696	775
0	2949	82.211929244847	776
0	2951	82.270689441896	777
0	2957	82.441488849557	778
0	2961	82.560051158135	779
0	2966	82.74259517946	780
0	2968	82.786884583334	781
0	2975	82.979015904957	782
0	2980	83.155319470413	783
0	2982	83.217422080544	784
0	2986	83.393817463635	785
0	2989	83.500434343698	786
0	2992	83.517687367221	787
0	2996	83.699637508433	788
0	2999	83.86175103278	789
0	3000	83.889546566027	790
0	3004	84.055628992507	791
0	3007	84.250201751722	792
0	3009	84.403997743052	793
0	3011	84.458513156044	794
0	3015	84.63973844678	795
0	3018	84.755816465473	796
0	3020	84.767657115349	797
0	3025	84.881422337472	798
0	3029	85.01104981485	799
0	3030	85.052604462252	800
0	3035	85.183438377638	801
0	3036	85.215229957964	802
0	3039	85.301744328934	803
0	3041	85.325077306695	804
0	3048	85.518161201346	805
0	3053	85.709214262901	806
0	3057	85.8578743921	807
0	3058	85.881134166041	808
0	3063	86.059227874874	809
0	3068	86.23526526299	810
0	3070	86.297756393388	811
0	3073	86.41414640211	812
0	3078	86.582053242388	813
0	3084	86.739087204842	814
0	3087	86.823561549168	815
0	3090	86.893712587804	816
0	3096	87.052688366946	817
0	3099	87.167298360894	818
0	3103	87.355469476523	819
0	3109	87.542189251215	820
0	3112	87.64571233949	821
0	3116	87.785075762221	822
0	3117	87.840327580255	823
0	3119	87.976616537818	824
0	3122	88.139032242988	825
0	3125	88.280637956314	826
0	3127	88.298331065878	827
0	3133	88.497924083266	828
0	3137	88.692023598866	829
0	3141	88.804660017218	830
0	3143	88.876769876808	831
0	3147	88.93879056765	832
0	3152	89.057590837136	833
0	3159	89.244989364326	834
0	3165	89.438030504095	835
0	3168	89.521919390084	836
0	3170	89.568888548927	837
0	3171	89.609450940029	838
0	3176	89.779462880169	839
0	3179	89.846707826858	840
0	3184	89.931451006996	841
0	3186	89.968300676796	842
0	3188	89.995914508231	843
0	3197	90.165188939463	844
0	3200	90.208264616927	845
0	3205	90.306125631255	846
0	3207	90.316464214718	847
0	3215	90.462689479359	848
0	3218	90.563015968783	849
0	3226	90.709787854359	850
0	3231	90.861237830718	851
0	3234	90.896175126357	852
0	3240	91.045012081166	853
0	3244	91.158106275511	854
0	3245	91.180879793901	855
0	3246	91.197632104068	856
0	3249	91.287481378264	857
0	3250	91.311566704908	858
0	3253	91.353529124435	859
0	3257	91.453612778252	860
0	3266	91.636699614201	861
0	3267	91.649328502884	862
0	3270	91.698177181917	863
0	3275	91.798731927445	864
0	3276	91.809917103252	865
0	3282	91.925256303686	866
0	3289	92.074085327317	867
0	3298	92.265683916868	868
0	3301	92.369561496969	869
0	3305	92.522786019156	870
0	3309	92.672983463465	871
0	3313	92.7418146012	872
0	3319	92.937389709663	873
0	3325	93.127978061433	874
0	3330	93.261904647532	875
0	3334	93.389446390332	876
0	3335	93.407856712756	877
0	3339	93.52410649864	878
0	3340	93.53816136101	879
0	3341	93.584180394902	880
0	3346	93.642095216191	881
0	3348	93.668874272133	882
0	3355	93.761418185422	883
0	3364	93.941755324592	884
0	3366	93.969877591449	885
0	3370	94.053898698626	886
0	3371	94.064072152429	887
0	3376	94.130336230208	888
0	3385	94.318187445024	889
0	3387	94.386227311095	890
0	3390	94.439185856303	891
0	3392	94.583952758093	892
0	3397	94.73938996135	893
0	3400	94.933423697299	894
0	3402	94.968962078286	895
0	3406	95.10232324994	896
0	3408	95.216065888743	897
0	3414	95.380098194525	898
0	3418	95.459421083595	899
0	3419	95.48492772241	900
0	3421	95.51220364899	901
0	3428	95.655776528382	902
0	3433	95.718746897859	903
0	3435	95.732639351593	904
0	3443	95.90611213765	905
0	3445	95.926933829881	906
0	3451	96.045452893643	907
0	3458	96.158826409403	908
0	3464	96.298964617689	909
0	3466	96.36898649949	910
0	3470	96.44276422748	911
0	3473	96.509903414763	912
0	3475	96.562732293959	913
0	3477	96.573258775183	914
0	3484	96.759266937656	915
0	3493	96.910551816029	916
0	3499	97.065388064882	917
0	3500	97.081068545877	918
0	3501	97.128718850086	919
0	3509	97.309128127608	920
0	3515	97.467655514483	921
0	3516	97.549416769535	922
0	3521	97.675829133649	923
0	3525	97.871307395654	924
0	3530	97.984185984232	925
0	3533	98.078701106747	926
0	3538	98.26762969515	927
0	3543	98.439800748382	928
0	3548	98.631448881197	929
0	3551	98.714778012174	930
0	3554	98.790175655914	931
0	3558	98.880499808445	932
0	3561	98.934128531577	933
0	3562	98.995164761663	934
0	3570	99.157342675222	935
0	3578	99.320073294142	936
0	3583	99.485441661697	937
0	3587	99.66894027064	938
0	3589	99.714051810199	939
0	3593	99.872646784548	940
0	3596	100.015149262765	941
0	3599	100.207299582808	942
0	3604	100.380825462657	943
0	3607	100.467855032039	944
0	3612	100.656661260041	945
0	3615	100.815553340604	946
0	3616	100.839546203962	947
0	3618	101.022224359274	948
0	3619	101.056054515465	949
0	3621	101.0817572156	950
0	3624	101.16943521493	951
0	3630	101.288315209908	952
0	3638	101.460199780949	953
0	3640	101.488905822319	954
0	3644	101.563015261647	955
0	3648	101.650379768632	956
0	3651	101.692772331616	957
0	3654	101.740374775146	958
0	3659	101.888800747668	959
0	3662	102.032690334698	960
0	3663	102.083190062645	961
0	3665	102.102121731919	962
0	3671	102.242456486196	963
0	3676	102.413022002917	964
0	3683	102.570497304624	965
0	3686	102.751160775725	966
0	3687	102.843679009887	967
0	3689	102.955500642358	968
0	3692	103.016800492661	969
0	3693	103.064015594641	970
0	3699	103.172690505389	971
0	3702	103.183036209195	972
0	3711	103.339321411293	973
0	3713	103.390384595631	974
0	3721	103.501453319035	975
0	3724	103.539066714227	976
0	3732	103.701639592442	977
0	3735	103.742251762065	978
0	3741	103.853603070706	979
0	3743	103.903353063163	980
0	3750	104.050636525577	981
0	3753	104.127178649159	982
0	3755	104.164648706463	983
0	3758	104.306999022718	984
0	3761	104.40390492344	985
0	3765	104.520251004756	986
0	3767	104.594031682568	987
0	3772	104.769912781643	988
0	3774	104.814007417268	989
0	3775	104.849724129985	990
0	3780	105.036480243306	991
0	3782	105.065563081698	992
0	3786	105.247347981727	993
0	3792	105.438305967001	994
0	3794	105.514145367334	995
0	3797	105.580034124306	996
0	3803	105.717622112073	997
0	3809	105.832684952018	998
0	3813	105.958648526787	999
0	3819	106.12441902756	1000
0	3822	106.181089737425	1001
0	3827	106.347879745041	1002
0	3833	106.524768169146	1003
0	3837	106.693172155221	1004
0	3838	106.726076386939	1005
0	3841	106.867390875071	1006
0	3843	106.916934198243	1007
0	3850	107.091796111729	1008
0	3856	107.230262726968	1009
0	3860	107.364426094418	1010
0	3862	107.453535866748	1011
0	3865	107.505603598202	1012
0	3872	107.695437764688	1013
0	3875	107.71632287197	1014
0	3877	107.749063059403	1015
0	3883	107.845336138298	1016
0	3885	107.860251980921	1017
0	3895	108.042661742755	1018
0	3902	108.163556471314	1019
0	3910	108.32784726024	1020
0	3915	108.484841008699	1021
0	3918	108.580273919378	1022
0	3921	108.60090498986	1023
0	3927	108.778514798363	1024
0	3934	108.927597791597	1025
0	3938	109.051775021691	1026
0	3940	109.12348433337	1027
0	3942	109.134726758758	1028
0	3944	109.203478837267	1029
0	3955	109.376686275708	1030
0	3956	109.408491173079	1031
0	3958	109.439948148648	1032
0	3969	109.583113870201	1033
0	3974	109.684677579637	1034
0	3980	109.824159129342	1035
0	3983	109.995454999281	1036
0	3986	110.139744286449	1037
0	3991	110.306705881562	1038
0	3995	110.470667442528	1039
0	3997	110.567552373682	1040
0	4002	110.72003201579	1041
0	4004	110.747335262322	1042
0	4009	110.896585476117	1043
0	4013	110.975414652156	1044
0	4014	110.994297472655	1045
0	4017	111.009712735386	1046
0	4019	111.091486887179	1047
0	4024	111.137163243796	1048
0	4030	111.242296155316	1049
0	4032	111.272412347477	1050
0	4039	111.378076920293	1051
0	4041	111.427445327691	1052
0	4049	111.601727086734	1053
0	4058	111.788384197047	1054
0	4064	111.936814531772	1055
0	4065	111.961726955815	1056
0	4066	112.020715662936	1057
0	4070	112.075336862187	1058
0	4075	112.24054783502	1059
0	4077	112.339955735443	1060
0	4081	112.381181634379	1061
0	4087	112.526312661533	1062
0	4092	112.688050222829	1063
0	4099	112.883286960701	1064
0	4103	113.070862409497	1065
0	4107	113.23959230459	1066
0	4108	113.257007841549	1067
0	4109	113.274124319239	1068
0	4116	113.394782554612	1069
0	4118	113.457745244093	1070
0	4120	113.490586410151	1071
0	4126	113.592411451382	1072
0	4133	113.724553701114	1073
0	4138	113.910018091037	1074
0	4141	113.963429854636	1075
0	4142	114.006789575459	1076
0	4149	114.198152377594	1077
0	4155	114.381587891325	1078