version 3
run General-0-20230913-13:48:28-21017
attr configname General
attr datetime 20230913-13:48:28
attr datetimef 20230913-134828
attr experiment General
attr inifile omnetpp.ini
attr iterationvars ""
attr iterationvarsd ""
attr iterationvarsf ""
attr measurement ""
attr network Tictoc1
attr processid 21017
attr repetition 0
attr replication #0
attr resultdir results
attr runnumber 0
attr seedset 0
config network Tictoc1
config Tictoc.tic.delayTime exponential(1s)
config Tictoc.toc.delayTime exponential(0.1s)
config Tictoc.*.lossProbability 0.2
config record-eventlog true
config sim-time-limit 100s

vector 0 Tictoc1.tic transmissionSignal:vector ETV
attr recordingmode vector
attr source transmissionSignal
attr title tx_t
vector 1 Tictoc1.toc receptionSignal:vector ETV
attr recordingmode vector
attr source receptionSignal
attr title rx_t
0	1	1	1
0	3	2	2
0	5	3	3
0	7	4	4
0	9	5	5
0	11	6	6
0	13	7	7
0	15	8	8
0	17	9	9
0	19	10	10
0	21	11	11
0	23	12	12
0	25	13	13
0	27	14	14
0	29	15	15
0	31	16	16
0	33	17	17
0	35	18	18
0	37	19	19
0	39	20	20
0	41	21	21
0	43	22	22
0	45	23	23
0	47	24	24
0	49	25	25
0	51	26	26
0	53	27	27
0	55	28	28
0	57	29	29
0	59	30	30
0	61	31	31
0	63	32	32
0	65	33	33
0	67	34	34
0	69	35	35
0	71	36	36
0	73	37	37
0	75	38	38
0	77	39	39
0	79	40	40
0	81	41	41
0	83	42	42
0	85	43	43
0	87	44	44
0	89	45	45
0	91	46	46
0	93	47	47
0	95	48	48
0	97	49	49
0	99	50	50
0	101	51	51
0	103	52	52
0	105	53	53
0	107	54	54
0	109	55	55
0	111	56	56
0	113	57	57
0	115	58	58
0	117	59	59
0	119	60	60
0	121	61	61
0	123	62	62
0	125	63	63
0	127	64	64
0	129	65	65
0	131	66	66
0	133	67	67
0	135	68	68
0	137	69	69
0	139	70	70
0	141	71	71
0	143	72	72
0	145	73	73
0	147	74	74
0	149	75	75
0	151	76	76
0	153	77	77
0	155	78	78
0	157	79	79
0	159	80	80
0	161	81	81
0	163	82	82
0	165	83	83
0	167	84	84
0	169	85	85
0	171	86	86
0	173	87	87
0	175	88	88
0	177	89	89
0	179	90	90
0	181	91	91
0	183	92	92
0	185	93	93
0	187	94	94
0	189	95	95
0	191	96	96
0	193	97	97
0	195	98	98
0	197	99	99
0	199	100	100
1	2	1.1	1
1	4	2.1	2
1	6	3.1	3
1	8	4.1	4
1	10	5.1	5
1	12	6.1	6
1	14	7.1	7
1	16	8.1	8
1	18	9.1	9
1	20	10.1	10
1	22	11.1	11
1	24	12.1	12
1	26	13.1	13
1	30	15.1	14
1	34	17.1	15
1	38	19.1	16
1	40	20.1	17
1	42	21.1	18
1	44	22.1	19
1	46	23.1	20
1	48	24.1	21
1	50	25.1	22
1	52	26.1	23
1	54	27.1	24
1	56	28.1	25
1	60	30.1	26
1	64	32.1	27
1	68	34.1	28
1	70	35.1	29
1	72	36.1	30
1	74	37.1	31
1	78	39.1	32
1	80	40.1	33
1	82	41.1	34
1	84	42.1	35
1	86	43.1	36
1	88	44.1	37
1	90	45.1	38
1	92	46.1	39
1	94	47.1	40
1	96	48.1	41
1	100	50.1	42
1	102	51.1	43
1	104	52.1	44
1	108	54.1	45
1	110	55.1	46
1	112	56.1	47
1	114	57.1	48
1	118	59.1	49
1	120	60.1	50
1	126	63.1	51
1	128	64.1	52
1	130	65.1	53
1	134	67.1	54
1	140	70.1	55
1	142	71.1	56
1	146	73.1	57
1	150	75.1	58
1	152	76.1	59
1	154	77.1	60
1	156	78.1	61
1	158	79.1	62
1	160	80.1	63
1	162	81.1	64
1	164	82.1	65
1	166	83.1	66
1	168	84.1	67
1	170	85.1	68
1	176	88.1	69
1	178	89.1	70
1	180	90.1	71
1	182	91.1	72
1	188	94.1	73
1	192	96.1	74
1	194	97.1	75
1	196	98.1	76
1	198	99.1	77

