version 3
run General-3-20231019-19:59:30-65822
attr configname General
attr datetime 20231019-19:59:30
attr datetimef 20231019-195930
attr experiment General
attr inifile omnetpp.ini
attr iterationvars ""
attr iterationvarsd ""
attr iterationvarsf ""
attr measurement ""
attr network Multihop
attr processid 65822
attr repetition 3
attr replication #3
attr resultdir results
attr runnumber 3
attr seedset 3
config network Multihop
config Multihop.node[*].transmissionTime "uniform(1s, 2s)"
config Multihop.node[*].delayTime "uniform(0.01s, 0.2s)"
config Multihop.node[*].lossProbability 0.3
config record-eventlog true
config sim-time-limit 1000s
config repeat 5

vector 0 Multihop.node[0] txVector ETV
vector 1 Multihop.node[1] rxVector ETV
vector 2 Multihop.node[1] txVector ETV
vector 3 Multihop.node[4] rxVector ETV
vector 4 Multihop.node[4] txVector ETV
vector 5 Multihop.node[5] rxVector ETV
vector 6 Multihop.node[5] txVector ETV
vector 7 Multihop.node[6] rxVector ETV
vector 8 Multihop.node[6] e2eVector ETV
vector 9 Multihop.node[2] rxVector ETV
vector 10 Multihop.node[2] txVector ETV
vector 11 Multihop.node[3] rxVector ETV
vector 12 Multihop.node[3] txVector ETV
0	0	0	1
0	1	0.114651601831	2
0	3	1.185376482154	3
0	6	2.306705061416	4
0	7	3.347335798968	5
0	8	4.5952241007	6
0	10	5.688775596278	7
0	15	6.834145743702	8
0	18	8.392999828862	9
0	23	9.699360455921	10
0	26	11.592425562278	11
0	32	13.264809240889	12
0	35	14.489863743609	13
0	36	16.099487407668	14
0	40	17.30284193654	15
0	42	18.676966664683	16
0	43	20.437545155011	17
0	45	21.501314956764	18
0	54	23.193948703887	19
0	57	24.255477632698	20
0	63	25.2767033729	21
0	64	26.452765488135	22
0	65	28.443066676682	23
0	66	30.135717293084	24
0	68	31.887857323116	25
0	72	32.973858038498	26
0	79	34.398587989224	27
0	82	35.764528574025	28
0	83	37.490198198542	29
0	89	39.27513489786	30
0	92	40.760229121264	31
0	93	42.102648708107	32
0	97	43.712294422858	33
0	98	44.969500800897	34
0	103	46.246142347646	35
0	106	47.681662899745	36
0	110	49.541716362653	37
0	116	50.69938611805	38
0	124	51.780957160588	39
0	127	53.459840201843	40
0	133	54.700410516537	41
0	140	55.792542107008	42
0	142	57.567509925063	43
0	147	59.532803277089	44
0	148	60.554899091436	45
0	154	61.777275411016	46
0	156	63.580103381141	47
0	159	64.941187156201	48
0	160	66.017683436931	49
0	162	67.556476099021	50
0	166	68.740248414991	51
0	170	70.113059918234	52
0	171	71.237681668322	53
0	172	72.268610864715	54
0	174	73.500709254132	55
0	175	74.775346723688	56
0	177	76.717261087219	57
0	182	77.79304929201	58
0	185	79.232470819563	59
0	186	81.025793497753	60
0	188	82.66009696743	61
0	195	84.298149848892	62
0	196	85.39872756165	63
0	198	86.90065090505	64
0	199	87.971020664392	65
0	206	89.809924071958	66
0	213	91.666542230477	67
0	214	93.594071506826	68
0	221	94.814407837881	69
0	224	96.231969745901	70
0	236	98.020802087455	71
0	245	100.003606858036	72
0	246	101.726049060539	73
0	247	103.354074545742	74
0	248	104.762664389868	75
0	254	105.927263937962	76
0	256	107.824424783771	77
0	259	109.315486094986	78
0	260	110.852920471297	79
0	264	112.848706780074	80
0	271	114.5953778744	81
0	274	116.578539662368	82
0	275	118.434087863963	83
0	276	119.762324216848	84
0	283	120.848567834429	85
0	286	122.769037253994	86
0	288	124.0971029965	87
0	289	125.491854870531	88
0	291	126.514086759023	89
0	295	127.684076776567	90
0	299	129.424069846819	91
0	301	130.45170745447	92
0	305	131.912601473347	93
0	306	133.826137285285	94
0	307	135.545627790574	95
0	312	137.026319575101	96
0	315	138.070434795763	97
0	316	139.81580063894	98
0	317	141.545774386568	99
0	325	142.969890286751	100
0	328	144.496852543974	101
0	329	146.195781934378	102
0	330	147.957568172203	103
0	335	149.206258104253	104
0	336	151.15549512913	105
0	348	152.424725899776	106
0	352	154.267474436504	107
0	354	156.012079196586	108
0	356	157.796775040985	109
0	359	158.866894053598	110
0	360	159.963951369119	111
0	362	161.275500705536	112
0	367	163.134532776732	113
0	370	165.000548595866	114
0	376	166.84925547971	115
0	377	168.583997170279	116
0	380	170.466328664987	117
0	381	171.92225899019	118
0	382	173.319158655663	119
0	383	174.642992748019	120
0	386	176.117949593418	121
0	389	177.605315252977	122
0	398	179.153982423317	123
0	400	180.257237988828	124
0	405	181.934511245067	125
0	408	183.179708829687	126
0	409	184.676776358697	127
0	415	186.616234243454	128
0	416	188.10789814133	129
0	419	189.951314986523	130
0	422	191.191844574248	131
0	425	192.940227614322	132
0	432	194.29500188383	133
0	437	195.302619375826	134
0	441	196.997144572974	135
0	442	198.090392154946	136
0	443	199.653068214959	137
0	445	201.329029264	138
0	449	202.591281567073	139
0	451	204.565720428551	140
0	456	206.388709447185	141
0	457	208.301607284533	142
0	459	209.844604954194	143
0	460	211.060297140224	144
0	461	212.518025079347	145
0	465	214.46348588781	146
0	467	216.245831818856	147
0	469	217.772492030706	148
0	472	219.607174945134	149
0	473	220.651652448415	150
0	476	221.902744984324	151
0	481	223.863286220771	152
0	485	225.048721160809	153
0	489	226.117009489401	154
0	492	227.626123726903	155
0	495	229.343983874726	156
0	499	230.846253822627	157
0	505	231.999364766594	158
0	507	233.227347517222	159
0	511	234.254490092465	160
0	518	235.889955879025	161
0	519	237.29809794838	162
0	523	238.670692408759	163
0	529	239.826626834994	164
0	531	240.906559236184	165
0	535	242.470153621467	166
0	538	244.382858101813	167
0	544	245.558514849119	168
0	549	246.979868894978	169
0	550	248.840763002005	170
0	555	250.203540870756	171
0	556	251.692776430467	172
0	562	253.234976619318	173
0	564	254.972237824764	174
0	567	256.438405743869	175
0	568	258.405057000298	176
0	573	260.224174684914	177
0	574	261.37128763094	178
0	576	262.537460662959	179
0	583	264.515733938733	180
0	586	265.521897718146	181
0	587	267.167050165426	182
0	596	268.417052008281	183
0	602	269.991653648507	184
0	608	271.917771279415	185
0	611	273.082458934117	186
0	617	274.85200912652	187
0	619	276.168714999523	188
0	620	277.782680056127	189
0	632	278.95588942042	190
0	637	280.525446357042	191
0	638	282.125698412838	192
0	644	284.008484446746	193
0	647	285.694677047734	194
0	650	287.156318392674	195
0	659	288.930325864651	196
0	660	290.038500169827	197
0	667	291.80511668215	198
0	672	293.214671026985	199
0	673	294.696468678606	200
0	679	296.619131380529	201
0	680	297.800853008474	202
0	682	299.256370649044	203
0	683	300.806798996008	204
0	684	302.761125106667	205
0	693	303.924206014559	206
0	698	305.738817642978	207
0	699	307.401800238131	208
0	701	309.340115115349	209
0	702	310.915107893129	210
0	704	312.908509502723	211
0	706	314.709504089388	212
0	707	316.337178379833	213
0	708	317.729500484257	214
0	712	318.952217544965	215
0	713	320.124671370094	216
0	715	321.309718748858	217
0	718	322.596063937597	218
0	721	324.350387701603	219
0	727	326.174302966172	220
0	729	327.56440733357	221
0	734	328.77981486295	222
0	737	330.053869287554	223
0	738	331.3409862065	224
0	741	333.178801782034	225
0	744	334.556642487017	226
0	750	336.257081517089	227
0	755	337.905291918037	228
0	762	339.487607247732	229
0	763	340.6632893943	230
0	765	341.991513179453	231
0	769	343.205953103095	232
0	773	344.571455241251	233
0	775	345.809524248424	234
0	777	347.050044512213	235
0	778	348.420742686209	236
0	780	349.455908070854	237
0	782	350.737093694811	238
0	791	352.054648016184	239
0	792	353.405005149381	240
0	793	355.330699957978	241
0	795	356.581222439721	242
0	800	358.401756871329	243
0	807	360.395123627573	244
0	809	361.479893159192	245
0	810	363.073005696829	246
0	817	364.988613535022	247
0	820	366.262111974019	248
0	825	367.944512788277	249
0	826	369.516882312089	250
0	828	370.591170412093	251
0	829	372.229302214529	252
0	843	373.479348295904	253
0	846	375.108480207459	254
0	847	376.489494325896	255
0	848	378.168651632802	256
0	855	379.264719542652	257
0	863	380.283364467393	258
0	866	381.335165351699	259
0	880	382.977532076486	260
0	888	384.48853449577	261
0	897	385.923427557875	262
0	899	387.804037182661	263
0	912	389.339046884164	264
0	913	390.355002187727	265
0	914	392.226164349657	266
0	915	393.620411234279	267
0	916	395.018428563676	268
0	918	396.65468492622	269
0	921	398.594819516479	270
0	925	399.605525715114	271
0	931	401.354871698027	272
0	939	403.260352320807	273
0	941	404.599456201611	274
0	947	406.568513374148	275
0	949	407.862553832891	276
0	951	409.846600529809	277
0	953	411.268200684643	278
0	957	413.130865165802	279
0	959	414.568804697205	280
0	963	416.503331831495	281
0	966	418.497751906586	282
0	967	419.935105995347	283
0	970	420.97603679409	284
0	975	422.815758652824	285
0	978	423.840304998986	286
0	981	425.270510462418	287
0	983	427.23746055139	288
0	989	428.956188373107	289
0	990	430.075297442337	290
0	993	431.732240111639	291
0	995	433.60357442389	292
0	997	434.755593310182	293
0	998	436.308287413863	294
0	999	437.66906044197	295
0	1001	439.316202357716	296
0	1006	440.341787145545	297
0	1009	441.440744812207	298
0	1010	442.696579616356	299
0	1011	444.411847291819	300
0	1012	445.605762471051	301
0	1017	446.746126373137	302
0	1020	448.517217930012	303
0	1028	449.601002213849	304
0	1030	451.5864412145	305
0	1031	453.207896441059	306
0	1033	454.737368408195	307
0	1039	455.782467667084	308
0	1042	456.959682537313	309
0	1044	458.274786041188	310
0	1045	459.81143674308	311
0	1046	461.483385570883	312
0	1047	462.765474617551	313
0	1053	463.959523001057	314
0	1067	465.354018854746	315
0	1076	467.229182075546	316
0	1079	468.376405117637	317
0	1083	469.648563268198	318
0	1087	471.581617505126	319
0	1088	472.803545632469	320
0	1092	473.946760725299	321
0	1093	475.221860434696	322
0	1097	476.958530628424	323
0	1098	478.330941316973	324
0	1100	479.521834194729	325
0	1107	480.666276498068	326
0	1108	481.964802237995	327
0	1110	483.292937321192	328
0	1113	484.768593072262	329
0	1115	486.656989239458	330
0	1119	488.286969306948	331
0	1122	490.016356185614	332
0	1125	491.329089798336	333
0	1127	493.177208022517	334
0	1132	494.563475226122	335
0	1136	495.628204979771	336
0	1138	496.701046907879	337
0	1139	497.937725866982	338
0	1142	499.330650898698	339
0	1143	500.943412198522	340
0	1145	502.226905731321	341
0	1147	503.37670430385	342
0	1148	505.21484535567	343
0	1149	506.419021744118	344
0	1150	507.680671481951	345
0	1154	508.96307337617	346
0	1160	510.588603135035	347
0	1161	512.518714547925	348
0	1162	513.770667529734	349
0	1165	515.331059277592	350
0	1168	517.193709723254	351
0	1175	518.303879948634	352
0	1176	519.773091659949	353
0	1178	520.79292615603	354
0	1180	522.136772454086	355
0	1182	523.775420578032	356
0	1183	525.15709609778	357
0	1188	526.896252080634	358
0	1193	528.594950817594	359
0	1196	530.116548492176	360
0	1197	531.36919959525	361
0	1198	532.759068403927	362
0	1201	534.700821012792	363
0	1205	536.196466052041	364
0	1206	537.714620140449	365
0	1207	539.386275061707	366
0	1209	540.63181836258	367
0	1210	542.036213824594	368
0	1214	543.384648762013	369
0	1217	545.377358984503	370
0	1219	547.116991030353	371
0	1229	548.868899308446	372
0	1231	549.890406024245	373
0	1233	551.353684152778	374
0	1236	552.794571701972	375
0	1239	554.564243529992	376
0	1240	556.349721517017	377
0	1241	557.594672310933	378
0	1243	559.060846588643	379
0	1251	560.146548123633	380
0	1262	561.828206302434	381
0	1264	563.47985145247	382
0	1267	565.118208509939	383
0	1268	566.846120696351	384
0	1270	568.487093208892	385
0	1272	570.429132199216	386
0	1281	572.298113904962	387
0	1288	573.486964931547	388
0	1291	574.759267637807	389
0	1292	576.669899838812	390
0	1294	577.887475434293	391
0	1299	579.378504258881	392
0	1303	580.581005024559	393
0	1316	582.552745317177	394
0	1320	584.030809525701	395
0	1321	585.568738011478	396
0	1322	586.668036119614	397
0	1323	588.051510581814	398
0	1324	589.357743508948	399
0	1325	590.615846286595	400
0	1332	592.056946043458	401
0	1333	593.894949389689	402
0	1336	595.482972230364	403
0	1338	596.54407982954	404
0	1344	598.198486800372	405
0	1345	599.538789396706	406
0	1353	600.579209151045	407
0	1358	602.096727251607	408
0	1365	603.833443622171	409
0	1367	605.240820525746	410
0	1372	606.426716522147	411
0	1377	608.058876993201	412
0	1379	609.18080428878	413
0	1381	610.205181930048	414
0	1384	611.349502449456	415
0	1385	612.367838388608	416
0	1388	613.767098880206	417
0	1390	614.83227375785	418
0	1393	615.929728445198	419
0	1395	617.610736687269	420
0	1399	619.170861235421	421
0	1402	620.23440380145	422
0	1408	622.081665103623	423
0	1414	623.797850851036	424
0	1415	625.666294949661	425
0	1421	627.271809374747	426
0	1428	629.070568859876	427
0	1429	630.812927711355	428
0	1430	632.168078140654	429
0	1438	633.439473249782	430
0	1446	635.087472551102	431
0	1448	636.971002029088	432
0	1452	638.723013397838	433
0	1453	639.775683039865	434
0	1455	641.155105038845	435
0	1457	642.957168558446	436
0	1458	644.200244131332	437
0	1463	646.070660173727	438
0	1464	647.560370754285	439
0	1473	649.406183374647	440
0	1474	651.015094185548	441
0	1476	653.012591742046	442
0	1478	654.308897768214	443
0	1481	656.180920393506	444
0	1483	657.918216634376	445
0	1484	659.614526690749	446
0	1488	661.582801234509	447
0	1490	663.404671794801	448
0	1491	664.960877848157	449
0	1492	666.651174124397	450
0	1493	668.222032767322	451
0	1494	669.595969253054	452
0	1502	670.664352568865	453
0	1503	672.407083599895	454
0	1507	674.364085182614	455
0	1508	676.183192466452	456
0	1510	677.248426877494	457
0	1511	679.034761266849	458
0	1515	680.132305793065	459
0	1517	682.109741469213	460
0	1518	684.077081122735	461
0	1521	685.943644297609	462
0	1523	687.190908176659	463
0	1528	688.418117907198	464
0	1530	689.692522421313	465
0	1534	691.085891638483	466
0	1538	692.323399000635	467
0	1543	693.937514171304	468
0	1546	695.278463868258	469
0	1547	696.47449829599	470
0	1549	697.783183313274	471
0	1553	698.992476665016	472
0	1557	700.625324001137	473
0	1558	702.282170550965	474
0	1561	703.824482121339	475
0	1563	705.307152226169	476
0	1566	706.713767741874	477
0	1569	708.085871622499	478
0	1571	709.159883065682	479
0	1573	710.315309541833	480
0	1574	711.59786761163	481
0	1575	713.223571915247	482
0	1579	714.727350054376	483
0	1584	716.214099910177	484
0	1585	718.195525158496	485
0	1586	719.542115053461	486
0	1589	721.068104786166	487
0	1591	722.141694808911	488
0	1592	723.268268944296	489
0	1597	724.718155881456	490
0	1605	726.688026517696	491
0	1607	727.886989697648	492
0	1610	729.868885042911	493
0	1614	731.862290005732	494
0	1616	733.821002609862	495
0	1618	735.420108112341	496
0	1623	736.817698437788	497
0	1627	738.256867897997	498
0	1628	740.222956726162	499
0	1633	742.067600538789	500
0	1637	743.828604534336	501
0	1638	745.123955512487	502
0	1639	746.836774887585	503
0	1640	748.004699457738	504
0	1641	749.967389835113	505
0	1645	751.620758296059	506
0	1652	753.10336982	507
0	1653	754.243166293784	508
0	1654	756.199275509057	509
0	1657	758.037602141801	510
0	1663	759.84600505845	511
0	1666	761.487229608068	512
0	1667	762.596305121969	513
0	1668	763.839626143289	514
0	1672	765.129230802714	515
0	1674	766.220561597332	516
0	1680	768.008214548997	517
0	1688	769.105237830033	518
0	1693	770.777484634261	519
0	1698	772.085640012588	520
0	1704	773.324395120678	521
0	1706	775.290402243914	522
0	1708	776.690974440727	523
0	1711	778.098982837818	524
0	1719	779.571987323298	525
0	1723	780.919833333532	526
0	1725	782.396039386348	527
0	1726	783.411836855182	528
0	1727	785.289858105661	529
0	1729	786.32543980663	530
0	1734	787.742543756331	531
0	1736	789.236173821681	532
0	1741	791.156327613697	533
0	1742	792.575544413014	534
0	1744	794.350044587928	535
0	1748	795.899849532706	536
0	1755	797.038346486933	537
0	1756	799.01625628427	538
0	1758	800.39231122455	539
0	1762	802.326105770491	540
0	1764	803.329483854653	541
0	1767	805.274956483695	542
0	1772	806.755714165581	543
0	1774	807.920660023413	544
0	1775	809.474552689654	545
0	1779	810.701755858327	546
0	1781	812.381203494568	547
0	1783	813.452894793425	548
0	1784	814.657619977903	549
0	1788	815.842328216017	550
0	1790	817.182834378046	551
0	1791	818.64281684167	552
0	1794	819.760121901354	553
0	1804	821.365270562072	554
0	1807	823.197280124596	555
0	1808	824.670804154894	556
0	1810	826.07907227387	557
0	1816	827.446093136513	558
0	1822	828.515538842951	559
0	1824	830.046792210613	560
0	1825	831.184704785536	561
0	1829	833.028808937243	562
0	1831	834.190577718497	563
0	1834	836.03263516661	564
0	1840	837.789216394371	565
0	1841	839.651229827034	566
0	1848	840.703029998413	567
0	1852	841.907800015595	568
0	1854	843.297543767907	569
0	1856	845.224609584615	570
0	1863	847.206716363851	571
0	1865	848.33562341409	572
0	1869	850.150515372001	573
0	1870	851.610927525742	574
0	1872	853.356294184292	575
0	1873	854.369430269648	576
0	1874	855.85736732797	577
0	1878	857.659235730369	578
0	1881	859.093750187729	579
0	1882	860.152198791804	580
0	1887	861.941524551783	581
0	1889	863.639955552595	582
0	1891	865.159916186307	583
0	1892	867.145552410113	584
0	1893	868.53534400726	585
0	1894	870.350206442012	586
0	1895	872.325135499772	587
0	1897	873.476341422482	588
0	1905	875.085317079977	589
0	1906	876.689594560836	590
0	1909	878.008356914923	591
0	1910	879.456323799745	592
0	1913	881.444379255709	593
0	1915	882.733480859616	594
0	1918	884.563458280939	595
0	1921	885.895094312097	596
0	1925	886.91163895449	597
0	1929	888.655924297006	598
0	1930	890.325934811331	599
0	1931	891.921592311304	600
0	1932	893.058409789646	601
0	1940	894.713070310954	602
0	1941	895.899675747449	603
0	1942	897.133049904438	604
0	1943	898.849847825313	605
0	1946	900.123353373561	606
0	1949	901.467100009857	607
0	1952	902.770087032648	608
0	1954	904.342405368876	609
0	1957	905.526346340845	610
0	1963	906.818121098051	611
0	1967	908.170819974341	612
0	1970	909.818828134634	613
0	1975	911.399297882406	614
0	1979	913.108084813295	615
0	1988	914.939989960356	616
0	1991	916.235445351409	617
0	1995	917.610266913729	618
0	2001	918.927659715362	619
0	2002	920.492679614876	620
0	2004	922.173118408839	621
0	2005	923.995769965066	622
0	2009	925.287692477297	623
0	2010	926.528384791523	624
0	2016	927.908744682161	625
0	2017	929.674637367552	626
0	2018	930.890895681525	627
0	2024	932.700587894604	628
0	2025	934.663985466887	629
0	2026	935.869038865505	630
0	2030	937.679875700571	631
0	2032	939.148652954795	632
0	2039	940.616569014568	633
0	2046	941.92689074513	634
0	2053	943.330146786593	635
0	2055	944.429525899304	636
0	2057	945.758913360139	637
0	2060	947.247257660212	638
0	2062	948.575665416963	639
0	2064	949.698808530647	640
0	2065	950.971762757817	641
0	2073	952.057714285165	642
0	2078	953.806849139346	643
0	2081	955.772841210081	644
0	2082	957.693677181215	645
0	2087	959.674409804237	646
0	2090	961.577676265803	647
0	2092	962.885019522463	648
0	2094	964.263391139754	649
0	2103	965.926172822085	650
0	2111	967.812504495331	651
0	2116	969.254315060633	652
0	2117	971.216524495114	653
0	2118	972.693326148274	654
0	2120	973.817982456716	655
0	2124	975.033328932081	656
0	2125	976.532987555093	657
0	2127	977.712151004071	658
0	2133	979.387420985219	659
0	2136	981.102924114396	660
0	2142	982.983209164185	661
0	2145	984.786954208347	662
0	2149	986.348233403941	663
0	2150	988.157067036559	664
0	2153	989.97031551071	665
0	2162	991.040387719474	666
0	2176	992.081444715453	667
0	2177	993.177651007963	668
0	2178	995.16597454676	669
0	2180	996.310287487298	670
0	2181	998.304405140761	671
0	2189	999.804670243595	672
1	4	1.313545634032	1
1	11	5.794878333192	2
1	16	6.903403708266	3
1	19	8.524457623546	4
1	24	9.855860640711	5
1	27	11.783964041755	6
1	33	13.362048025133	7
1	37	16.243677269637	8
1	46	21.606036040494	9
1	55	23.260057033977	10
1	58	24.367142335181	11
1	69	32.034325998558	12
1	73	33.149616376966	13
1	80	34.523628458235	14
1	84	37.694896887088	15
1	90	39.381637975829	16
1	94	42.145566007943	17
1	99	45.037331687908	18
1	104	46.279467524155	19
1	107	47.743158501098	20
1	111	49.651142899099	21
1	117	50.777846026402	22
1	125	51.919403847189	23
1	128	53.637134134658	24
1	134	54.761440915605	25
1	143	57.730205113483	26
1	149	60.642680772247	27
1	157	63.768075668167	28
1	163	67.659383945505	29
1	167	68.877808365857	30
1	178	76.789387998734	31
1	183	77.883725550857	32
1	189	82.804572410509	33
1	200	88.122173136278	34
1	207	89.981226014924	35
1	215	93.661938264031	36
1	222	94.889599967223	37
1	225	96.422160256111	38
1	237	98.158016074132	39
1	249	104.851791247257	40
1	257	107.986890668713	41
1	261	110.88224117382	42
1	265	112.977656823343	43
1	272	114.79504326479	44
1	277	119.847433277322	45
1	284	120.949155811511	46
1	292	126.648713808938	47
1	296	127.861192935756	48
1	302	130.543403854486	49
1	308	135.581629904235	50
1	313	137.143680057566	51
1	318	141.652405329185	52
1	326	143.054770847017	53
1	331	148.062429623914	54
1	337	151.23515530542	55
1	349	152.529970078944	56
1	357	157.97315363181	57
1	363	161.421798896064	58
1	368	163.226679814969	59
1	371	165.071707828067	60
1	378	168.726512410723	61
1	384	174.827724312108	62
1	387	176.218011101353	63
1	390	177.748684517498	64
1	401	180.36055923201	65
1	406	181.967159542816	66
1	410	184.882810869557	67
1	417	188.21763269401	68
1	420	190.086249386405	69
1	423	191.399471487985	70
1	426	192.983851310694	71
1	433	194.407857088663	72
1	438	195.4485944579	73
1	446	201.515270484385	74
1	452	204.734071729031	75
1	462	212.637300204975	76
1	470	217.97049437661	77
1	474	220.71683931608	78
1	477	222.038465308004	79
1	482	224.021891072467	80
1	486	225.208829121913	81
1	490	226.164550744383	82
1	493	227.776105769749	83
1	496	229.482200349867	84
1	500	230.939586491656	85
1	508	233.348441927804	86
1	512	234.388321396502	87
1	520	237.505380319687	88
1	524	238.812611254171	89
1	532	241.012330438268	90
1	536	242.544836641025	91
1	539	244.474871158771	92
1	545	245.579702375149	93
1	551	248.922012595783	94
1	557	251.781809099118	95
1	565	255.041828558879	96
1	569	258.543896298103	97
1	577	262.668814254789	98
1	584	264.544996066663	99
1	588	267.311338701936	100
1	597	268.609515939108	101
1	603	270.018909345676	102
1	609	272.100160566451	103
1	612	273.137227703767	104
1	621	277.847060198352	105
1	633	279.066344833634	106
1	639	282.256603250801	107
1	645	284.079125355	108
1	648	285.84676511249	109
1	651	287.292338772213	110
1	661	290.158408104895	111
1	668	291.827207569461	112
1	674	294.781391121827	113
1	685	302.840899211098	114
1	694	303.993160962294	115
1	709	317.919836321508	116
1	716	321.389922772505	117
1	719	322.763415652012	118
1	722	324.500066212249	119
1	730	327.616038043926	120
1	735	328.834094746934	121
1	739	331.52226283573	122
1	742	333.25394966736	123
1	745	334.739862303378	124
1	751	336.449715462493	125
1	756	337.973176662738	126
1	766	342.11372333573	127
1	770	343.261973063504	128
1	783	350.864540714494	129
1	796	356.741297843734	130
1	801	358.543795423934	131
1	811	363.217787980964	132
1	818	365.033834996515	133
1	821	366.364558643417	134
1	830	372.266815391426	135
1	844	373.669087602445	136
1	849	378.36130215403	137
1	856	379.350866800051	138
1	864	380.329909974649	139
1	867	381.401734085421	140
1	881	383.038349073981	141
1	889	384.689574851382	142
1	900	387.918734131282	143
1	919	396.848854220097	144
1	922	398.770239748456	145
1	926	399.814245649001	146
1	932	401.376715334133	147
1	942	404.783013699868	148
1	954	411.385311762361	149
1	960	414.687675726783	150
1	964	416.656049810901	151
1	968	420.102486805508	152
1	971	421.059218468652	153
1	976	422.893617709316	154
1	979	424.000922266289	155
1	984	427.395441491243	156
1	991	430.283011515466	157
1	1002	439.486336602752	158
1	1007	440.437144035885	159
1	1013	445.675386148011	160
1	1018	446.818501245742	161
1	1021	448.712964820721	162
1	1034	454.943637453346	163
1	1040	455.835439473964	164
1	1048	462.812561676486	165
1	1054	464.084375299979	166
1	1069	465.487661021788	167
1	1077	467.421197170887	168
1	1080	468.531995610315	169
1	1084	469.703706042491	170
1	1089	472.895530837869	171
1	1094	475.274894500206	172
1	1101	479.604104698132	173
1	1111	483.502453639663	174
1	1116	486.831742245102	175
1	1120	488.39332988193	176
1	1123	490.140016029484	177
1	1128	493.277373589931	178
1	1133	494.717601617065	179
1	1140	498.065073341567	180
1	1151	507.794290181652	181
1	1155	509.11141293043	182
1	1163	513.805222559729	183
1	1166	515.428590313169	184
1	1169	517.285470917479	185
1	1184	525.216664473185	186
1	1189	526.973769422466	187
1	1194	528.766850395534	188
1	1199	532.791867615202	189
1	1202	534.734327521152	190
1	1211	542.201573488725	191
1	1215	543.456662909948	192
1	1220	547.243533365778	193
1	1234	551.469279842969	194
1	1237	552.898364725382	195
1	1244	559.263922214581	196
1	1265	563.576681200272	197
1	1273	570.456616308029	198
1	1282	572.480553704734	199
1	1289	573.61536569302	200
1	1295	578.031332858096	201
1	1300	579.567543983325	202
1	1304	580.668326396319	203
1	1317	582.628729234615	204
1	1326	590.695894831107	205
1	1334	594.015649495378	206
1	1339	596.571674958211	207
1	1346	599.649704589887	208
1	1354	600.639128442931	209
1	1359	602.298290866028	210
1	1368	605.274486496857	211
1	1373	606.450480233378	212
1	1382	610.27899396988	213
1	1386	612.414750964591	214
1	1391	615.038774105896	215
1	1396	617.739591349635	216
1	1400	619.195666197978	217
1	1403	620.383890531183	218
1	1409	622.163740579233	219
1	1416	625.698832593354	220
1	1422	627.359999776009	221
1	1431	632.3470600438	222
1	1439	633.548562636823	223
1	1449	637.159561913172	224
1	1459	644.392335179343	225
1	1465	647.673600796051	226
1	1479	654.479350661735	227
1	1485	659.668147560886	228
1	1495	669.751953904596	229
1	1504	672.496832500432	230
1	1512	679.187106332738	231
1	1519	684.228212765994	232
1	1524	687.230462760376	233
1	1531	689.807419489633	234
1	1535	691.156231405017	235
1	1539	692.429755080612	236
1	1544	694.092621062567	237
1	1550	697.884373037944	238
1	1554	699.119970927641	239
1	1559	702.394949296959	240
1	1564	705.424080971156	241
1	1567	706.773261857945	242
1	1576	713.295517173612	243
1	1580	714.74887181529	244
1	1587	719.671044319995	245
1	1593	723.418048657985	246
1	1598	724.803222430091	247
1	1608	728.014894724688	248
1	1611	729.948547831533	249
1	1619	735.518957829668	250
1	1624	737.011786374196	251
1	1629	740.253887902049	252
1	1634	742.145316050537	253
1	1642	750.142625056289	254
1	1646	751.784439861396	255
1	1655	756.285295872431	256
1	1658	758.061567598603	257
1	1664	760.051420232543	258
1	1669	763.906291559833	259
1	1675	766.277944194766	260
1	1681	768.206982031435	261
1	1689	769.242983759668	262
1	1694	770.880022812249	263
1	1699	772.129671472459	264
1	1709	776.753593639458	265
1	1712	778.186754712917	266
1	1720	779.747538068397	267
1	1730	786.467859876655	268
1	1737	789.270947020937	269
1	1745	794.394179655521	270
1	1749	796.053689751211	271
1	1759	800.58682225963	272
1	1765	803.387856721004	273
1	1768	805.336236203325	274
1	1776	809.67606745092	275
1	1785	814.717800442725	276
1	1792	818.72225386898	277
1	1795	819.825614493601	278
1	1805	821.55129980335	279
1	1811	826.226264987758	280
1	1817	827.539245220736	281
1	1826	831.249682898103	282
1	1832	834.290331142957	283
1	1835	836.082593831322	284
1	1842	839.711782029753	285
1	1849	840.832757133665	286
1	1857	845.308693484033	287
1	1866	848.537513900054	288
1	1875	855.910639801014	289
1	1879	857.722800466986	290
1	1883	860.349034887107	291
1	1898	873.572621010942	292
1	1907	876.860325976571	293
1	1911	879.478524020701	294
1	1916	882.801943721565	295
1	1919	884.758160383597	296
1	1922	886.00872391328	297
1	1926	887.038553638205	298
1	1933	893.137897487401	299
1	1944	899.057070073792	300
1	1947	900.298499928339	301
1	1950	901.543870091216	302
1	1955	904.515254153213	303
1	1958	905.679676417543	304
1	1964	906.979800285917	305
1	1968	908.366745756876	306
1	1971	909.862428211017	307
1	1976	911.421966863872	308
1	1980	913.180567001504	309
1	1989	915.120751511147	310
1	1992	916.364917781958	311
1	1996	917.770563088806	312
1	2006	924.165087564641	313
1	2011	926.706210093045	314
1	2019	930.921267684083	315
1	2027	936.043991775896	316
1	2033	939.273264030711	317
1	2040	940.739686014528	318
1	2047	941.967156035518	319
1	2058	945.809886170468	320
1	2066	951.16826113026	321
1	2074	952.264420673478	322
1	2079	953.841682187465	323
1	2083	957.884361815292	324
1	2088	959.738416840776	325
1	2095	964.33764268182	326
1	2104	966.027912874156	327
1	2112	967.883814611772	328
1	2121	974.018807150732	329
1	2128	977.8549620009	330
1	2134	979.439620152211	331
1	2137	981.210047335809	332
1	2143	983.046998866895	333
1	2146	984.812940190479	334
1	2151	988.279074994181	335
1	2154	990.179912378735	336
1	2164	991.156969738628	337
1	2182	998.469630734341	338
2	4	1.313545634032	1
2	11	5.794878333192	2
2	16	6.903403708266	3
2	19	8.524457623546	4
2	24	9.855860640711	5
2	27	11.783964041755	6
2	33	13.362048025133	7
2	37	16.243677269637	8
2	46	21.606036040494	9
2	55	23.260057033977	10
2	58	24.367142335181	11
2	69	32.034325998558	12
2	73	33.149616376966	13
2	80	34.523628458235	14
2	84	37.694896887088	15
2	90	39.381637975829	16
2	94	42.145566007943	17
2	99	45.037331687908	18
2	104	46.279467524155	19
2	107	47.743158501098	20
2	111	49.651142899099	21
2	117	50.777846026402	22
2	125	51.919403847189	23
2	128	53.637134134658	24
2	134	54.761440915605	25
2	143	57.730205113483	26
2	149	60.642680772247	27
2	157	63.768075668167	28
2	163	67.659383945505	29
2	167	68.877808365857	30
2	178	76.789387998734	31
2	183	77.883725550857	32
2	189	82.804572410509	33
2	200	88.122173136278	34
2	207	89.981226014924	35
2	215	93.661938264031	36
2	222	94.889599967223	37
2	225	96.422160256111	38
2	237	98.158016074132	39
2	249	104.851791247257	40
2	257	107.986890668713	41
2	261	110.88224117382	42
2	265	112.977656823343	43
2	272	114.79504326479	44
2	277	119.847433277322	45
2	284	120.949155811511	46
2	292	126.648713808938	47
2	296	127.861192935756	48
2	302	130.543403854486	49
2	308	135.581629904235	50
2	313	137.143680057566	51
2	318	141.652405329185	52
2	326	143.054770847017	53
2	331	148.062429623914	54
2	337	151.23515530542	55
2	349	152.529970078944	56
2	357	157.97315363181	57
2	363	161.421798896064	58
2	368	163.226679814969	59
2	371	165.071707828067	60
2	378	168.726512410723	61