version 3
run General-0-20231019-19:59:30-65822
attr configname General
attr datetime 20231019-19:59:30
attr datetimef 20231019-195930
attr experiment General
attr inifile omnetpp.ini
attr iterationvars ""
attr iterationvarsd ""
attr iterationvarsf ""
attr measurement ""
attr network Multihop
attr processid 65822
attr repetition 0
attr replication #0
attr resultdir results
attr runnumber 0
attr seedset 0
config network Multihop
config Multihop.node[*].transmissionTime "uniform(1s, 2s)"
config Multihop.node[*].delayTime "uniform(0.01s, 0.2s)"
config Multihop.node[*].lossProbability 0.3
config record-eventlog true
config sim-time-limit 1000s
config repeat 5

vector 0 Multihop.node[0] txVector ETV
vector 1 Multihop.node[1] rxVector ETV
vector 2 Multihop.node[1] txVector ETV
vector 3 Multihop.node[3] rxVector ETV
vector 4 Multihop.node[3] txVector ETV
vector 5 Multihop.node[4] rxVector ETV
vector 6 Multihop.node[4] txVector ETV
vector 7 Multihop.node[2] rxVector ETV
vector 8 Multihop.node[2] txVector ETV
vector 9 Multihop.node[5] rxVector ETV
vector 10 Multihop.node[5] txVector ETV
vector 11 Multihop.node[6] rxVector ETV
vector 12 Multihop.node[6] e2eVector ETV
0	0	0	1
0	1	0.114274565438	2
0	5	1.707119181827	3
0	6	3.598892183584	4
0	7	5.562554947642	5
0	11	6.945996468962	6
0	12	8.283392630593	7
0	13	9.93156450715	8
0	22	11.299806044512	9
0	33	13.036724222433	10
0	34	14.394876392633	11
0	37	16.145562531501	12
0	40	17.584164044894	13
0	41	19.219222921952	14
0	43	21.214522487558	15
0	45	22.62889107557	16
0	46	24.252401181571	17
0	47	25.59040879908	18
0	49	27.265161121338	19
0	50	29.043506603063	20
0	54	30.993077654465	21
0	57	32.965022653415	22
0	59	34.569868171428	23
0	62	35.609055960391	24
0	63	37.089949496629	25
0	66	38.778610682886	26
0	72	40.471082802236	27
0	75	42.138493178485	28
0	76	43.403223342801	29
0	78	44.801044094449	30
0	80	45.965984555034	31
0	82	47.112426318301	32
0	97	48.816163599098	33
0	101	50.211032891253	34
0	104	51.501110501194	35
0	105	52.603973861158	36
0	108	53.696347747769	37
0	111	55.349548563201	38
0	112	56.717110434853	39
0	114	58.152975354184	40
0	120	59.959169345981	41
0	122	61.46748479626	42
0	125	63.24653581444	43
0	126	64.653719112117	44
0	129	65.722886102347	45
0	131	67.589268428346	46
0	132	69.445071771348	47
0	135	70.456785852861	48
0	137	71.796189668894	49
0	138	73.135174785348	50
0	139	74.314665053346	51
0	141	75.485651646116	52
0	145	77.360224608173	53
0	153	78.86025090197	54
0	154	80.082694125435	55
0	158	81.3014434933	56
0	159	82.386739060356	57
0	163	83.443157394956	58
0	164	85.297770978025	59
0	170	87.041605520368	60
0	171	88.062256525111	61
0	182	89.820635177035	62
0	184	91.778086033024	63
0	185	93.489669854593	64
0	188	94.643364158066	65
0	189	95.920992866464	66
0	193	97.507777211795	67
0	196	99.224636891697	68
0	197	100.429502653264	69
0	201	101.594461524699	70
0	202	103.498181264222	71
0	206	104.581603698971	72
0	208	105.822432476169	73
0	210	106.838862107441	74
0	225	108.508778649688	75
0	237	110.289205298832	76
0	239	111.591036173122	77
0	240	113.517249105804	78
0	241	114.842559414989	79
0	243	116.795430086161	80
0	245	118.328895762403	81
0	246	120.211755760786	82
0	247	121.462378480545	83
0	249	123.13979030501	84
0	253	124.571938352733	85
0	256	125.703421148545	86
0	263	127.161935702273	87
0	265	129.009211018988	88
0	269	130.187578372498	89
0	271	131.966770343323	90
0	273	133.681949092149	91
0	278	135.151447397498	92
0	282	136.707876823917	93
0	285	138.033561590435	94
0	287	139.937545541981	95
0	289	141.394456963828	96
0	295	142.853060920332	97
0	299	144.489121976849	98
0	302	145.947260801755	99
0	306	147.899135276517	100
0	307	149.058549740426	101
0	312	150.687448179889	102
0	316	151.994434232432	103
0	321	153.839791916851	104
0	322	155.166492803562	105
0	323	156.399236935731	106
0	328	158.013701642472	107
0	329	159.593853361979	108
0	330	161.364942414062	109
0	331	162.741168995462	110
0	332	164.232193736201	111
0	335	166.213833416421	112
0	339	167.622887510648	113
0	341	168.93564080338	114
0	342	170.006087992648	115
0	344	171.689660955062	116
0	351	173.323591907583	117
0	357	174.369599218555	118
0	358	176.361610462731	119
0	359	177.611030505812	120
0	364	178.716936664265	121
0	368	179.8497516644	122
0	373	181.353685273863	123
0	377	182.987682969151	124
0	378	184.955648540128	125
0	381	186.950049328227	126
0	382	188.621956347097	127
0	384	190.069472216144	128
0	387	191.447798359282	129
0	388	193.415593031868	130
0	390	194.962477928567	131
0	391	196.554708346566	132
0	392	198.451469503185	133
0	396	199.858202844933	134
0	403	201.106616305262	135
0	414	202.360258827759	136
0	422	203.820478535565	137
0	423	205.51137226292	138
0	427	206.610788655775	139
0	431	207.8378726268	140
0	438	209.505157466819	141
0	439	210.966164295403	142
0	443	212.792988513205	143
0	450	214.197413450414	144
0	451	215.233447272638	145
0	453	216.408219280029	146
0	458	218.360361978952	147
0	463	220.021479494246	148
0	464	221.539091596455	149
0	467	223.013759580982	150
0	482	224.686341887648	151
0	490	226.343361663707	152
0	494	227.456847580923	153
0	495	228.889129063888	154
0	497	230.411125333589	155
0	501	232.369866257841	156
0	507	234.305698337108	157
0	508	235.402956336113	158
0	512	236.900733240256	159
0	514	238.171846633851	160
0	517	239.651600507628	161
0	518	241.508725425768	162
0	522	242.626040992401	163
0	525	243.970759114557	164
0	531	245.402519239885	165
0	535	247.178322457084	166
0	540	248.709182583568	167
0	544	250.244099438264	168
0	548	252.092439590096	169
0	549	253.629718619007	170
0	550	254.904293668996	171
0	551	255.912983587784	172
0	552	256.937928317189	173
0	553	258.082214415846	174
0	554	259.595974150654	175
0	556	260.818632083554	176
0	560	261.873739363002	177
0	565	263.586666216916	178
0	572	264.936873476096	179
0	574	266.301785310805	180
0	575	267.797755607711	181
0	577	269.479495553374	182
0	580	271.003875359036	183
0	582	272.589307430973	184
0	583	274.198296046657	185
0	585	275.777307250844	186
0	594	277.463669295264	187
0	601	279.442216842742	188
0	603	281.234096408197	189
0	613	282.47898588756	190
0	615	284.261075263218	191
0	617	285.29763625197	192
0	619	287.175387038457	193
0	621	288.459473170181	194
0	626	290.231738747404	195
0	632	291.871443848432	196
0	635	293.641411035628	197
0	637	294.726477838428	198
0	638	295.807849560472	199
0	639	297.129866900229	200
0	643	298.741194321848	201
0	644	300.166596052777	202
0	645	301.230149832629	203
0	647	302.438403088674	204
0	650	303.653801294817	205
0	652	304.995938805472	206
0	655	306.659256724249	207
0	656	308.138641279963	208
0	657	310.053504371391	209
0	667	311.102853317586	210
0	678	312.259506805175	211
0	688	313.460517088491	212
0	695	315.23969652092	213
0	697	316.688065698211	214
0	698	318.309234949834	215
0	704	319.807414514552	216
0	706	320.866797698968	217
0	709	322.785344146964	218
0	710	324.510338241075	219
0	712	325.674826651187	220
0	714	327.172183484844	221
0	725	328.558630888191	222
0	727	329.796642162445	223
0	729	331.136398544841	224
0	734	332.720991118651	225
0	735	334.584467341963	226
0	736	335.932165330348	227
0	742	337.17480265659	228
0	744	338.493719977398	229
0	745	340.385300464999	230
0	746	342.086228533486	231
0	756	343.527005726077	232
0	768	345.406179061463	233
0	769	346.821211679211	234
0	771	347.853267300712	235
0	777	349.702586461861	236
0	780	350.712650156185	237
0	783	352.286742050504	238
0	784	353.511155667785	239
0	785	355.464831368835	240
0	792	357.047151102289	241
0	798	358.28298532574	242
0	799	360.278800619836	243
0	801	361.408156385482	244
0	802	362.476249487907	245
0	804	364.420100340456	246
0	806	366.139489399106	247
0	812	367.393871793593	248
0	817	368.660659953556	249
0	821	369.674168656883	250
0	823	370.984797875467	251
0	825	372.699941126933	252
0	826	374.40488918738	253
0	830	375.823526048637	254
0	833	376.874601527653	255
0	835	377.875265743188	256
0	836	379.15359104455	257
0	838	380.339488642593	258
0	842	381.448392384756	259
0	847	382.846311002342	260
0	850	384.239277777566	261
0	853	385.593502598653	262
0	858	386.693754347345	263
0	860	388.623046019651	264
0	866	390.451192628663	265
0	869	391.808950514836	266
0	871	392.865322677955	267
0	875	394.196774599213	268
0	876	395.307296896191	269
0	877	396.938128706604	270
0	880	398.936122710189	271
0	882	400.304613673898	272
0	883	402.000560535888	273
0	891	403.412994085184	274
0	893	404.9095422128	275
0	895	406.091018535501	276
0	898	407.331508932939	277
0	900	408.694990693895	278
0	901	410.339725033451	279
0	905	411.672556015734	280
0	906	413.306537675277	281
0	908	415.057569970215	282
0	911	416.483572359501	283
0	917	417.566448528391	284
0	923	418.95599703265	285
0	929	420.805379994285	286
0	933	422.607735748474	287
0	934	424.385113613751	288
0	939	425.528642181378	289
0	943	426.872931346135	290
0	946	427.904505941389	291
0	948	429.531666651206	292
0	955	430.701486150572	293
0	958	431.962074405352	294
0	960	433.147891149927	295
0	961	434.264449765045	296
0	966	435.622088794667	297
0	967	437.08467153234	298
0	969	438.731000713609	299
0	974	439.931951269345	300
0	980	441.719867019519	301
0	981	443.636207351066	302
0	982	444.89558473935	303
0	991	446.653778450867	304
0	992	448.439966952965	305
0	994	450.187989750482	306
0	998	451.488640912646	307
0	1003	452.509999595886	308
0	1011	453.860386615923	309
0	1013	455.101082595136	310
0	1016	457.07784455137	311
0	1018	459.015708926904	312
0	1022	460.113519085876	313
0	1028	461.387196631243	314
0	1033	462.401448141157	315
0	1036	463.65264825437	316
0	1037	465.635093136763	317
0	1039	467.035541669072	318
0	1040	468.436421237725	319
0	1043	470.204615898968	320
0	1044	471.708065179016	321
0	1050	472.904439326448	322
0	1055	474.200331301501	323
0	1063	475.925647533571	324
0	1068	477.722940397754	325
0	1070	479.589231978709	326
0	1072	480.602869725393	327
0	1073	482.520021691758	328
0	1075	483.689956678383	329
0	1082	485.120102294095	330
0	1084	486.676235473322	331
0	1088	488.634302650186	332
0	1092	490.521585802854	333
0	1095	492.008733927579	334
0	1096	493.152912977691	335
0	1101	494.549147459519	336
0	1102	496.077467454438	337
0	1103	497.950458032618	338
0	1104	499.950311866429	339
0	1105	501.030596700337	340
0	1107	502.173675123675	341
0	1108	503.384976685818	342
0	1109	504.42990647217	343
0	1111	506.290268539756	344
0	1112	508.252109799141	345
0	1118	510.012388906747	346
0	1122	511.957807857383	347
0	1126	513.659785448413	348
0	1130	514.944670972487	349
0	1133	516.737169875836	350
0	1135	518.653588888541	351
0	1139	520.261134248532	352
0	1140	522.244568228794	353
0	1141	524.146699449585	354
0	1145	525.605422331791	355
0	1149	527.390977365968	356
0	1150	529.289065123375	357
0	1152	530.610538054563	358
0	1153	532.125305162582	359
0	1155	533.265744680378	360
0	1156	535.096221030995	361
0	1165	536.154130309893	362
0	1168	537.540668766786	363
0	1169	539.513764570075	364
0	1170	540.663263106792	365
0	1175	542.362799021722	366
0	1179	544.160878039272	367
0	1182	545.751875841133	368
0	1183	547.164961969321	369
0	1185	548.875020276363	370
0	1188	550.192280469303	371
0	1190	551.748218160895	372
0	1191	553.518762227455	373
0	1197	555.427010606816	374
0	1207	557.20525233455	375
0	1208	559.054085365338	376
0	1212	560.858963810447	377
0	1216	562.699604717623	378
0	1221	564.340169308316	379
0	1222	565.648827104671	380
0	1227	567.605768698109	381
0	1233	568.625460341647	382
0	1238	569.940847543608	383
0	1241	571.36666508818	384
0	1242	572.895975306704	385
0	1245	574.51854082833	386
0	1247	576.433948471751	387
0	1249	578.353119476307	388
0	1252	579.658386488287	389
0	1254	581.244014620623	390
0	1262	582.301013469305	391
0	1263	583.464277130859	392
0	1264	585.161104465444	393
0	1273	586.388535845867	394
0	1274	587.388903196045	395
0	1277	588.662635823089	396
0	1280	590.616199048312	397
0	1285	592.031324302388	398
0	1287	593.846935271827	399
0	1288	595.252724113019	400
0	1289	597.235132373713	401
0	1290	598.892273478752	402
0	1294	600.649744321203	403
0	1305	602.412884547917	404
0	1308	604.230961775483	405
0	1311	605.280418437283	406
0	1312	607.133107445744	407
0	1313	608.165883349563	408
0	1315	609.410040381906	409
0	1321	610.598772591521	410
0	1323	612.364042945282	411
0	1329	613.487538166653	412
0	1335	614.49770310878	413
0	1337	615.901824659744	414
0	1338	617.314306148637	415
0	1339	619.157964497648	416
0	1341	620.681073345553	417
0	1346	622.040947364254	418
0	1347	623.327276910033	419
0	1348	624.494018493762	420
0	1350	625.666715175921	421
0	1358	626.776398235775	422
0	1359	628.538324747078	423
0	1361	630.429089094821	424
0	1371	631.536390121869	425
0	1373	632.566271259758	426
0	1380	634.188081200078	427
0	1381	635.366282156978	428
0	1386	636.537454204943	429
0	1391	638.516778745765	430
0	1398	640.29660155399	431
0	1401	641.843551616494	432
0	1402	643.424570198713	433
0	1408	645.195859153599	434
0	1414	647.154138487142	435
0	1416	648.494743130247	436
0	1418	650.278801742087	437
0	1419	652.245848538897	438
0	1420	654.120690899746	439
0	1421	655.676353528708	440
0	1430	656.777637772573	441
0	1432	658.587204145579	442
0	1433	659.789170577037	443
0	1436	661.482893913598	444
0	1443	662.695576319085	445
0	1446	664.642133404115	446
0	1447	666.096723272545	447
0	1448	667.306326007317	448
0	1449	668.653785676309	449
0	1457	670.107950945464	450
0	1459	672.040007672585	451
0	1462	673.873953274065	452
0	1465	674.957483863538	453
0	1467	676.356331383889	454
0	1470	677.459524510741	455
0	1472	679.417013051301	456
0	1474	680.529764560131	457
0	1478	682.247951084595	458
0	1479	683.760300235204	459
0	1480	685.21832119891	460
0	1483	686.767739781258	461
0	1491	688.6555740869	462
0	1494	689.785336713852	463
0	1495	690.822814391307	464
0	1500	692.596076446898	465
0	1501	694.277412122428	466
0	1504	695.381313578771	467
0	1512	697.205303672315	468
0	1513	698.433436565181	469
0	1518	700.286070550173	470
0	1521	701.428926602086	471
0	1522	703.023305260191	472
0	1523	704.569394632789	473
0	1530	705.933679201255	474
0	1532	707.685025631763	475
0	1533	708.88246694285	476
0	1535	710.852597813202	477
0	1538	712.832972887983	478
0	1540	714.774715028317	479
0	1546	716.072685290673	480
0	1548	717.744253609874	481
0	1551	719.582429103399	482
0	1552	721.303627220992	483
0	1553	722.783735031107	484
0	1554	724.427599072301	485
0	1557	725.92937219919	486
0	1561	727.855513579988	487
0	1565	729.115766120686	488
0	1566	730.602710296943	489
0	1567	732.13456938796	490
0	1571	734.096979662853	491
0	1572	735.247694806506	492
0	1576	736.409946614954	493
0	1581	737.471835784925	494
0	1592	738.893717915131	495
0	1594	740.615440785963	496
0	1596	742.112185204014	497
0	1598	744.099546586241	498
0	1599	745.870012980963	499
0	1608	747.006216245548	500
0	1613	748.414893639351	501
0	1616	750.107448265034	502
0	1621	751.976176842193	503
0	1624	753.681483615965	504
0	1632	754.902802734014	505
0	1637	756.448431658402	506
0	1640	757.492294084124	507
0	1644	759.140459952254	508
0	1649	760.221458138509	509
0	1664	761.630479643431	510
0	1672	763.191878364033	511
0	1673	764.469813721797	512
0	1680	765.788216657781	513
0	1682	766.868683843485	514
0	1686	768.224691103988	515
0	1690	769.680090798608	516
0	1693	770.709880340223	517
0	1699	772.49941864501	518
0	1706	773.965440390941	519
0	1708	775.497008107912	520
0	1711	777.43795844082	521
0	1715	778.966040365475	522
0	1721	780.518781101408	523
0	1725	781.672151446187	524
0	1728	783.570064992954	525
0	1729	785.532561163262	526
0	1730	787.32951275686	527
0	1734	788.683005473886	528
0	1735	790.645125243191	529
0	1740	791.938148079284	530
0	1744	793.683814661421	531
0	1745	794.884820148891	532
0	1751	796.72841050693	533
0	1754	798.501865179354	534
0	1755	800.217922891799	535
0	1759	801.394341657247	536
0	1765	803.177880850929	537
0	1774	804.696247261559	538
0	1778	806.118857335608	539
0	1779	807.924559676397	540
0	1781	809.595987223397	541
0	1788	810.720783670741	542
0	1795	812.701763072592	543
0	1798	814.163615678745	544
0	1803	815.66520715233	545
0	1808	816.901020566542	546
0	1813	817.985458891215	547
0	1814	819.123765641665	548
0	1816	820.749143819632	549
0	1817	822.679541253559	550
0	1818	823.804695190703	551
0	1820	825.5417556349	552
0	1823	826.999085742123	553
0	1826	828.97387300346	554
0	1828	830.736453378414	555
0	1832	832.465838844962	556
0	1834	834.223332488751	557
0	1836	835.712929116404	558
0	1841	836.942662708536	559
0	1842	838.459401422488	560
0	1843	840.236594154109	561
0	1846	841.359773798688	562
0	1847	843.003876344376	563
0	1852	844.283799730084	564
0	1856	846.099417316803	565
0	1861	847.287816835643	566
0	1864	849.015605585027	567
0	1865	850.038842209924	568
0	1867	851.569945982734	569
0	1869	852.623608889601	570
0	1871	854.396213031218	571
0	1873	855.426501440427	572
0	1874	856.471011071077	573
0	1875	857.718849723071	574
0	1878	858.911730427139	575
0	1881	860.874010337826	576
0	1883	862.698871210294	577
0	1885	864.1670409174	578
0	1891	865.935733001057	579
0	1893	867.78650865013	580
0	1895	869.669934108697	581
0	1898	871.650638948504	582
0	1902	873.298821226305	583
0	1907	875.085140205531	584
0	1909	876.961402146223	585
0	1913	878.040204500857	586
0	1914	879.992314294989	587
0	1916	881.869932668593	588
0	1921	882.8869625056	589
0	1923	884.437481195044	590
0	1925	885.465436572053	591
0	1926	887.043058577769	592
0	1938	888.125974025189	593
0	1943	889.828313171475	594
0	1948	891.564625865158	595
0	1950	893.321458628245	596
0	1952	894.991143524025	597
0	1956	896.852950327874	598
0	1958	898.134018267582	599
0	1961	900.081721556916	600
0	1962	901.448972974516	601
0	1965	903.388051331587	602
0	1966	905.005111016178	603
0	1972	906.477401401692	604
0	1980	908.002202603345	605
0	1985	909.315156056856	606
0	1991	910.841477666593	607
0	1994	911.913557817771	608
0	1999	913.255950537355	609
0	2001	915.244356878645	610
0	2008	916.633796548316	611
0	2011	917.97954239122	612
0	2013	919.666012153108	613
0	2015	920.819386595706	614
0	2017	922.112269524331	615
0	2018	923.878274272508	616
0	2027	924.984106093026	617
0	2028	926.542837082953	618
0	2029	927.873454155712	619
0	2033	929.718692151676	620
0	2034	931.166974300132	621
0	2035	932.181323449439	622
0	2042	933.792808767021	623
0	2047	935.343024782449	624
0	2048	937.224445249265	625
0	2052	938.790447864992	626
0	2054	940.094648541727	627
0	2055	941.395375452314	628
0	2062	943.133700210445	629
0	2068	944.603266937269	630
0	2073	945.769971600345	631
0	2080	947.736192735222	632
0	2083	949.134980338004	633
0	2085	950.705027215492	634
0	2086	952.058063607274	635
0	2090	953.492445856642	636
0	2092	954.927078374505	637
0	2093	956.536242432969	638
0	2094	958.312200879056	639
0	2099	959.388346041163	640
0	2104	960.948966432206	641
0	2105	962.02216373345	642
0	2113	963.176280900679	643
0	2114	964.708248246304	644
0	2116	966.532353022211	645
0	2117	967.99727519516	646
0	2122	969.606354506529	647
0	2127	971.038951147656	648
0	2128	972.810998498072	649
0	2130	974.015290888568	650
0	2131	976.013734933996	651
0	2136	977.858925367083	652
0	2137	978.995554335724	653
0	2138	980.364315183909	654
0	2144	982.325869491865	655
0	2146	984.192322587903	656
0	2147	985.445929968573	657
0	2149	987.042817767553	658
0	2150	988.177927867586	659
0	2152	989.428669698613	660
0	2153	990.730897773599	661
0	2157	992.443106087001	662
0	2167	994.432311364759	663
0	2169	996.12660284674	664
0	2173	997.860678524088	665
0	2174	999.374912701856	666
1	2	0.294685056815	1
1	8	5.732982703993	2
1	14	10.133423986471	3
1	25	11.360950612287	4
1	35	14.530364219307	5
1	38	16.353353559552	6
1	51	29.189386707993	7
1	55	31.17993441349	8
1	60	34.643601493727	9
1	64	37.277239916328	10
1	67	38.906264958093	11
1	73	40.516124396017	12
1	83	47.187236840465	13
1	98	48.953737225689	14
1	102	50.348455822366	15
1	106	52.6912427274	16
1	109	53.840247369898	17
1	115	58.30671418544	18
1	123	61.651822121901	19
1	127	64.806230578884	20
1	133	69.533467602572	21
1	142	75.685034398804	22
1	146	77.389794919334	23
1	155	80.210913096488	24
1	160	82.499428224495	25
1	165	85.408704280047	26
1	172	88.14305978262	27
1	186	93.648453868894	28
1	190	96.105125430709	29
1	194	97.603028555513	30
1	198	100.473220934834	31
1	203	103.623097833799	32
1	211	107.008041160394	33
1	226	108.715934782972	34
1	250	123.30269586343	35
1	254	124.602459472939	36
1	257	125.823093745565	37
1	266	129.042484232291	38
1	274	133.869663856699	39
1	279	135.201822142507	40
1	283	136.755809463256	41
1	290	141.552048814693	42
1	296	142.918664772339	43
1	300	144.621408967839	44
1	303	146.076653521631	45
1	308	149.154252249591	46
1	313	150.730204736068	47
1	317	152.116326394546	48
1	324	156.425521107637	49
1	333	164.298677503886	50
1	336	166.264794756901	51
1	345	171.88576798252	52
1	352	173.387791035806	53
1	360	177.811711501403	54
1	365	178.808043135004	55
1	369	179.926037717892	56
1	374	181.538470260917	57
1	379	185.061494659628	58
1	385	190.108478306073	59
1	393	198.576364374508	60
1	397	199.974317457963	61
1	404	201.211382051674	62
1	416	202.38491903381	63
1	424	205.586429679422	64
1	428	206.717212032229	65
1	432	207.941599184519	66
1	440	211.088596759389	67
1	444	212.916471510585	68
1	454	216.485224773977	69
1	459	218.464012091414	70
1	465	221.594120489942	71
1	468	223.134258167333	72
1	483	224.830280589027	73
1	491	226.415085242938	74
1	498	230.453416225375	75
1	502	232.576717242608	76
1	509	235.53336190243	77
1	515	238.288440807259	78
1	519	241.580263320368	79
1	523	242.781656697718	80
1	526	244.107519376673	81
1	532	245.475938303684	82
1	536	247.21451673865	83
1	541	248.805988870372	84
1	545	250.410527592186	85
1	557	261.011759543936	86
1	561	261.974858611469	87
1	566	263.624833994716	88
1	578	269.52179780968	89
1	586	275.982899593743	90
1	595	277.592959663993	91
1	604	281.295223287788	92
1	622	288.595560606694	93
1	627	290.329316299936	94
1	633	291.959354531466	95
1	640	297.219715873312	96
1	648	302.621487239534	97
1	653	305.178286210482	98
1	658	310.129153198783	99
1	669	311.25283720599	100
1	679	312.40069939817	101
1	699	318.493924771821	102
1	707	320.909620532474	103
1	715	327.330778626559	104
1	730	331.300162750986	105
1	737	336.09106772077	106
1	747	342.145614769125	107
1	757	343.686620343757	108
1	772	348.005417153541	109
1	778	349.812993438199	110
1	781	350.766590927533	111
1	786	355.505251156544	112
1	793	357.185046082153	113
1	807	366.20989703075	114
1	813	367.45178240434	115
1	818	368.772572997883	116
1	827	374.425898096876	117
1	831	376.026974209726	118
1	839	380.409772065403	119
1	843	381.61554756685	120
1	848	383.042030567525	121
1	851	384.282130473106	122
1	854	385.757709664152	123
1	861	388.830216668382	124
1	867	390.502292637374	125
1	872	392.924474749175	126
1	878	397.145827648717	127
1	884	402.051781205958	128
1	896	406.152918912309	129
1	902	410.536852380977	130
1	909	415.247184332291	131
1	912	416.649080530753	132
1	918	417.636564388903	133
1	924	419.137254123007	134
1	930	420.825391502578	135
1	935	424.462362309153	136
1	940	425.652923541524	137
1	944	427.064122849305	138
1	949	429.579858648447	139
1	956	430.806330030003	140
1	962	434.285334183425	141
1	970	438.815190478869	142
1	975	440.057457150063	143
1	983	445.002961028047	144
1	995	450.360141484496	145
1	999	451.528081107706	146
1	1004	452.619298398982	147
1	1014	455.145229144258	148
1	1019	459.203737395168	149
1	1023	460.175475699131	150
1	1029	461.472196367318	151
1	1034	462.483018081798	152
1	1041	468.556687036161	153
1	1045	471.733210042128	154
1	1051	472.982064791666	155
1	1056	474.238886635271	156
1	1064	476.094130731861	157
1	1076	483.791894809506	158
1	1085	486.879724986291	159
1	1089	488.799665941155	160
1	1093	490.729755821239	161
1	1097	493.20121820239	162
1	1113	508.34895003927	163
1	1119	510.119377590989	164
1	1123	512.070847990558	165
1	1127	513.699543182606	166
1	1131	515.123443718944	167
1	1136	518.773639854	168
1	1142	524.322015569573	169
1	1146	525.767727206056	170
1	1157	535.171584906383	171
1	1171	540.748910804956	172
1	1176	542.487487874985	173
1	1180	544.339137287333	174
1	1186	549.081081621001	175
1	1192	553.567328680698	176
1	1198	555.597417369136	177
1	1209	559.26377279252	178
1	1213	560.890317814492	179
1	1217	562.850447897987	180
1	1223	565.795368099928	181
1	1228	567.63353492076	182
1	1234	568.690202011591	183
1	1239	570.0868292353	184
1	1243	572.967199438488	185
1	1250	578.552301305628	186
1	1255	581.401030777677	187
1	1265	585.342037761307	188
1	1275	587.496701726483	189
1	1278	588.698650572311	190
1	1281	590.734996195861	191
1	1291	598.916390575997	192
1	1295	600.835078934622	193
1	1306	602.549610344346	194
1	1309	604.324167172121	195
1	1316	609.582605702753	196
1	1324	612.404381038429	197
1	1330	613.665440817919	198
1	1342	620.734475919201	199
1	1351	625.747837724159	200
1	1362	630.450810494303	201
1	1374	632.635317992923	202
1	1382	635.468332260754	203
1	1387	636.571248216503	204
1	1392	638.660676179493	205
1	1399	640.372388749726	206
1	1403	643.549364415453	207
1	1409	645.372469782243	208
1	1422	655.788218652989	209
1	1434	659.95720982237	210
1	1437	661.593450616207	211
1	1444	662.740874475779	212
1	1450	668.838175853717	213
1	1460	672.210507678148	214
1	1463	674.072006647236	215
1	1468	676.435203360345	216
1	1475	680.702136434997	217
1	1481	685.372203502448	218
1	1484	686.920978581261	219
1	1492	688.686747743872	220
1	1496	690.928662348402	221
1	1502	694.441325255158	222
1	1505	695.404159068307	223
1	1514	698.500008613112	224
1	1519	700.40747794326	225
1	1524	704.75059795048	226
1	1536	710.892012812964	227
1	1541	714.929469444158	228
1	1549	717.776205933075	229
1	1555	724.601787582408	230
1	1558	725.960500006623	231
1	1562	727.946044884055	232
1	1568	732.283000764854	233
1	1573	735.28948419414	234
1	1577	736.585994274664	235
1	1582	737.582484685968	236
1	1600	745.978922929177	237
1	1609	747.12471838442	238
1	1614	748.590634702596	239
1	1617	750.223626581766	240
1	1622	752.065655344925	241
1	1625	753.73658393699	242
1	1633	755.108000149329	243
1	1638	756.503430477026	244
1	1641	757.564703219011	245
1	1645	759.294153517955	246
1	1650	760.304585431649	247
1	1667	761.785996386439	248
1	1674	764.628313783868	249
1	1683	767.076296490613	250
1	1687	768.33339493443	251
1	1691	769.773811959061	252
1	1694	770.819596451614	253
1	1700	772.68859057162	254
1	1709	775.626378581649	255
1	1712	777.610200390529	256
1	1716	779.072011847443	257
1	1722	780.707977003811	258
1	1726	781.785590411996	259
1	1731	787.511193810517	260
1	1736	790.79236726084	261
1	1741	792.079024092797	262
1	1746	795.037121647957	263
1	1752	796.825602281188	264
1	1756	800.412479700506	265
1	1760	801.598775112179	266
1	1766	803.253800968226	267
1	1775	804.778307955676	268
1	1782	809.726234375356	269
1	1789	810.787495038173	270
1	1796	812.821183559546	271
1	1799	814.350704995515	272
1	1804	815.704787270162	273
1	1809	816.95246237976	274
1	1821	825.704810126938	275
1	1824	827.104559432377	276
1	1829	830.91757046929	277
1	1837	835.822476531726	278
1	1844	840.34484732054	279
1	1848	843.082560977238	280
1	1853	844.446364935307	281
1	1857	846.20222714749	282
1	1862	847.400050081733	283
1	1876	857.779734413193	284
1	1879	858.998687779219	285
1	1886	864.232368461959	286
1	1896	869.753095721362	287
1	1899	871.796911189435	288
1	1903	873.347988812009	289
1	1910	877.123646731945	290
1	1917	881.961748198322	291
1	1927	887.071404947829	292
1	1944	889.969350207786	293
1	1953	895.192892119253	294
1	1959	898.306210868983	295
1	1963	901.511223933809	296
1	1967	905.14791196996	297
1	1973	906.589731973026	298
1	1981	908.139002536967	299
1	1986	909.424595165868	300
1	1992	910.878509737265	301
1	1995	911.977105216391	302
1	2002	915.348499034204	303
1	2009	916.729893537025	304
1	2019	924.04417150218	305
1	2030	927.979987070278	306
1	2036	932.390531149909	307
1	2043	933.880031951342	308
1	2049	937.372826199067	309
1	2056	941.464650338686	310
1	2063	943.201932669473	311
1	2069	944.751758952052	312
1	2074	945.94064704621	313
1	2081	947.781974375791	314
1	2087	952.187388963122	315
1	2095	958.362232228147	316
1	2100	959.573592310146	317
1	2106	962.088711873182	318
1	2118	968.052382364067	319
1	2123	969.751717272423	320
1	2132	976.157337149492	321
1	2139	980.407407448447	322
1	2154	990.770417290525	323
1	2158	992.544079005112	324
1	2170	996.309618777348	325
1	2175	999.532353688741	326
2	2	0.294685056815	1
2	8	5.732982703993	2
2	14	10.133423986471	3
2	25	11.360950612287	4
2	35	14.530364219307	5
2	38	16.353353559552	6
2	51	29.189386707993	7
2	55	31.17993441349	8
2	60	34.643601493727	9
2	64	37.277239916328	10
2	67	38.906264958093	11
2	73	40.516124396017	12
2	83	47.187236840465	13
2	98	48.953737225689	14
2	102	50.348455822366	15
2	106	52.6912427274	16
2	109	53.840247369898	17
2	115	58.30671418544	18
2	123	61.651822121901	19
2	127	64.806230578884	20
2	133	69.533467602572	21
2	142	75.685034398804	22
2	146	77.389794919334	23
2	155	80.210913096488	24
2	160	82.499428224495	25
2	165	85.408704280047	26
2	172	88.14305978262	27
2	186	93.648453868894	28
2	190	96.105125430709	29
2	194	97.603028555513	30
2	198	100.473220934834	31
2	203	103.623097833799	32
2	211	107.008041160394	33
2	226	108.715934782972	34
2	250	123.30269586343	35
2	254	124.602459472939	36
2	257	125.823093745565	37
2	266	129.042484232291	38
2	274	133.869663856699	39
2	279	135.201822142507	40
2	283	136.755809463256	41
2	290	141.552048814693	42
2	296	142.918664772339	43
2	300	144.621408967839	44
2	303	146.076653521631	45
2	308	149.154252249591	46
2	313	150.730204736068	47
2	317	152.116326394546	48
2	324	156.425521107637	49
2	333	164.298677503886	50
2	336	166.264794756901	51
2	345	171.88576798252	52
2	352	173.387791035806	53
2	360	177.811711501403	54
2	365	178.808043135004	55
2	369	179.926037717892	56
2	374	181.538470260917	57
2	379	185.061494659628	58
2	385	190.108478306073	59
2	393	198.576364374508	60
2	397	199.974317457963	61
2	404	201.211382051674	62
2	416	202.38491903381	63
2	424	205.586429679422	64
2	428	206.717212032229	65
2	432	207.941599184519	66
2	440	211.088596759389	67
2	444	212.916471510585	68
2	454	216.485224773977	69
2	459	218.464012091414	70
2	465	221.594120489942	71
2	468	223.134258167333	72
2	483	224.830280589027	73
2	491	226.415085242938	74
2	498	230.453416225375	75
2	502	232.576717242608	76
2	509	235.53336190243	77
2	515	238.288440807259	78
2	519	241.580263320368	79