version 3
run General-1-20231019-19:47:19-63521
attr configname General
attr datetime 20231019-19:47:19
attr datetimef 20231019-194719
attr experiment General
attr inifile omnetpp.ini
attr iterationvars ""
attr iterationvarsd ""
attr iterationvarsf ""
attr measurement ""
attr network Reliability
attr processid 63521
attr repetition 1
attr replication #1
attr resultdir results
attr runnumber 1
attr seedset 1
config network Reliability
config Reliability.node[*].transmissionTime "uniform(1s, 2s)"
config Reliability.node[*].delayTime "uniform(0.01s, 0.2s)"
config Reliability.node[*].lossProbability 0.3
config record-eventlog true
config sim-time-limit 1000s
config repeat 5

vector 0 Reliability.node[0] txVector ETV
vector 1 Reliability.node[1] txVector ETV
vector 2 Reliability.node[1] rxVector ETV
vector 3 Reliability.node[0] rxVector ETV
vector 4 Reliability.node[3] txVector ETV
vector 5 Reliability.node[3] rxVector ETV
vector 6 Reliability.node[4] txVector ETV
vector 7 Reliability.node[4] rxVector ETV
vector 8 Reliability.node[2] txVector ETV
vector 9 Reliability.node[2] rxVector ETV
vector 10 Reliability.node[5] rxVector ETV
vector 11 Reliability.node[5] e2eVector ETV
0	1	0.089234179703	1
0	1	0.089234179703	1
0	1	0.089234179703	1
0	6	1.809558668991	2
0	6	1.809558668991	2
0	6	1.809558668991	2
0	8	3.206139395132	3
0	8	3.206139395132	3
0	8	3.206139395132	3
0	22	4.551700120212	4
0	22	4.551700120212	4
0	22	4.551700120212	4
0	33	6.267670631062	5
0	33	6.267670631062	5
0	33	6.267670631062	5
0	47	7.688778251761	6
0	47	7.688778251761	6
0	47	7.688778251761	6
0	52	8.762142425987	7
0	52	8.762142425987	7
0	52	8.762142425987	7
0	66	9.892170995127	8
0	66	9.892170995127	8
0	66	9.892170995127	8
0	80	11.385230588613	9
0	80	11.385230588613	9
0	80	11.385230588613	9
0	94	13.312739167249	10
0	94	13.312739167249	10
0	94	13.312739167249	10
0	96	14.38653117826	11
0	96	14.38653117826	11
0	96	14.38653117826	11
0	98	16.33602043812	12
0	98	16.33602043812	12
0	98	16.33602043812	12
0	109	17.691330801349	13
0	109	17.691330801349	13
0	109	17.691330801349	13
0	123	19.048600561803	14
0	123	19.048600561803	14
0	123	19.048600561803	14
0	128	20.257168870073	15
0	128	20.257168870073	15
0	128	20.257168870073	15
0	130	21.283379857315	16
0	130	21.283379857315	16
0	130	21.283379857315	16
0	132	22.793190135507	17
0	132	22.793190135507	17
0	132	22.793190135507	17
0	134	24.653218085997	18
0	134	24.653218085997	18
0	134	24.653218085997	18
0	139	25.884976549426	19
0	139	25.884976549426	19
0	139	25.884976549426	19
0	153	27.470735817335	20
0	153	27.470735817335	20
0	153	27.470735817335	20
0	155	29.407926143266	21
0	155	29.407926143266	21
0	155	29.407926143266	21
0	166	30.515420266546	22
0	166	30.515420266546	22
0	166	30.515420266546	22
0	168	31.677038796132	23
0	168	31.677038796132	23
0	168	31.677038796132	23
0	179	33.258397725762	24
0	179	33.258397725762	24
0	179	33.258397725762	24
0	193	35.072274087581	25
0	193	35.072274087581	25
0	193	35.072274087581	25
0	195	36.282448099812	26
0	195	36.282448099812	26
0	195	36.282448099812	26
0	197	37.44465361105	27
0	197	37.44465361105	27
0	197	37.44465361105	27
0	199	38.704968713109	28
0	199	38.704968713109	28
0	199	38.704968713109	28
0	201	39.848231719925	29
0	201	39.848231719925	29
0	201	39.848231719925	29
0	215	41.487692601631	30
0	215	41.487692601631	30
0	215	41.487692601631	30
0	229	43.412892709604	31
0	229	43.412892709604	31
0	229	43.412892709604	31
0	243	44.547971865047	32
0	243	44.547971865047	32
0	243	44.547971865047	32
0	257	45.789461001406	33
0	257	45.789461001406	33
0	257	45.789461001406	33
0	265	47.682349705954	34
0	265	47.682349705954	34
0	265	47.682349705954	34
0	279	49.081764997334	35
0	279	49.081764997334	35
0	279	49.081764997334	35
0	293	50.836847180153	36
0	293	50.836847180153	36
0	293	50.836847180153	36
0	295	52.521535088193	37
0	295	52.521535088193	37
0	295	52.521535088193	37
0	297	53.948236100028	38
0	297	53.948236100028	38
0	297	53.948236100028	38
0	305	55.168102398167	39
0	305	55.168102398167	39
0	305	55.168102398167	39
0	319	56.695817043191	40
0	319	56.695817043191	40
0	319	56.695817043191	40
0	333	57.977033934673	41
0	333	57.977033934673	41
0	333	57.977033934673	41
0	347	59.087925237488	42
0	347	59.087925237488	42
0	347	59.087925237488	42
0	361	60.288134232746	43
0	361	60.288134232746	43
0	361	60.288134232746	43
0	375	62.154742503888	44
0	375	62.154742503888	44
0	375	62.154742503888	44
0	389	63.381204117672	45
0	389	63.381204117672	45
0	389	63.381204117672	45
0	403	64.927274923423	46
0	403	64.927274923423	46
0	403	64.927274923423	46
0	408	66.482802460553	47
0	408	66.482802460553	47
0	408	66.482802460553	47
0	422	67.744975539507	48
0	422	67.744975539507	48
0	422	67.744975539507	48
0	427	69.648577406421	49
0	427	69.648577406421	49
0	427	69.648577406421	49
0	429	71.357964659227	50
0	429	71.357964659227	50
0	429	71.357964659227	50
0	443	72.730052332977	51
0	443	72.730052332977	51
0	443	72.730052332977	51
0	457	74.554062198499	52
0	457	74.554062198499	52
0	457	74.554062198499	52
0	471	76.13941518392	53
0	471	76.13941518392	53
0	471	76.13941518392	53
0	485	78.044817217743	54
0	485	78.044817217743	54
0	485	78.044817217743	54
0	487	79.683876191849	55
0	487	79.683876191849	55
0	487	79.683876191849	55
0	501	80.80333323998	56
0	501	80.80333323998	56
0	501	80.80333323998	56
0	515	82.031938049361	57
0	515	82.031938049361	57
0	515	82.031938049361	57
0	529	83.041286627414	58
0	529	83.041286627414	58
0	529	83.041286627414	58
0	531	84.447989501177	59
0	531	84.447989501177	59
0	531	84.447989501177	59
0	533	85.762366122684	60
0	533	85.762366122684	60
0	533	85.762366122684	60
0	538	87.618839186036	61
0	538	87.618839186036	61
0	538	87.618839186036	61
0	540	89.320715717158	62
0	540	89.320715717158	62
0	540	89.320715717158	62
0	545	91.199987484959	63
0	545	91.199987484959	63
0	545	91.199987484959	63
0	547	92.864090046498	64
0	547	92.864090046498	64
0	547	92.864090046498	64
0	561	94.642728452223	65
0	561	94.642728452223	65
0	561	94.642728452223	65
0	575	96.01816328487	66
0	575	96.01816328487	66
0	575	96.01816328487	66
0	580	97.457951351419	67
0	580	97.457951351419	67
0	580	97.457951351419	67
0	594	98.777904182091	68
0	594	98.777904182091	68
0	594	98.777904182091	68
0	608	100.640815904015	69
0	608	100.640815904015	69
0	608	100.640815904015	69
0	622	102.314514323022	70
0	622	102.314514323022	70
0	622	102.314514323022	70
0	624	103.350604013657	71
0	624	103.350604013657	71
0	624	103.350604013657	71
0	632	105.117888525944	72
0	632	105.117888525944	72
0	632	105.117888525944	72
0	640	106.611156793196	73
0	640	106.611156793196	73
0	640	106.611156793196	73
0	654	107.818782452379	74
0	654	107.818782452379	74
0	654	107.818782452379	74
0	668	109.753737079098	75
0	668	109.753737079098	75
0	668	109.753737079098	75
0	682	111.485343549985	76
0	682	111.485343549985	76
0	682	111.485343549985	76
0	684	113.061792186347	77
0	684	113.061792186347	77
0	684	113.061792186347	77
0	698	114.268246244525	78
0	698	114.268246244525	78
0	698	114.268246244525	78
0	712	115.799704566717	79
0	712	115.799704566717	79
0	712	115.799704566717	79
0	714	117.558451500375	80
0	714	117.558451500375	80
0	714	117.558451500375	80
0	719	119.302922973063	81
0	719	119.302922973063	81
0	719	119.302922973063	81
0	721	121.160820076827	82
0	721	121.160820076827	82
0	721	121.160820076827	82
0	735	122.992260889968	83
0	735	122.992260889968	83
0	735	122.992260889968	83
0	737	124.113028077994	84
0	737	124.113028077994	84
0	737	124.113028077994	84
0	751	125.469481938871	85
0	751	125.469481938871	85
0	751	125.469481938871	85
0	753	127.144453544056	86
0	753	127.144453544056	86
0	753	127.144453544056	86
0	767	128.457777160339	87
0	767	128.457777160339	87
0	767	128.457777160339	87
0	781	129.962477768425	88
0	781	129.962477768425	88
0	781	129.962477768425	88
0	795	131.665977084663	89
0	795	131.665977084663	89
0	795	131.665977084663	89
0	809	132.800315689648	90
0	809	132.800315689648	90
0	809	132.800315689648	90
0	811	133.934469214527	91
0	811	133.934469214527	91
0	811	133.934469214527	91
0	813	135.650414917504	92
0	813	135.650414917504	92
0	813	135.650414917504	92
0	827	136.652961452843	93
0	827	136.652961452843	93
0	827	136.652961452843	93
0	829	138.628183799914	94
0	829	138.628183799914	94
0	829	138.628183799914	94
0	843	139.774508569508	95
0	843	139.774508569508	95
0	843	139.774508569508	95
0	845	141.06979736488	96
0	845	141.06979736488	96
0	845	141.06979736488	96
0	859	142.9308405075	97
0	859	142.9308405075	97
0	859	142.9308405075	97
0	873	144.347564467812	98
0	873	144.347564467812	98
0	873	144.347564467812	98
0	887	145.88507749315	99
0	887	145.88507749315	99
0	887	145.88507749315	99
0	901	147.314009830473	100
0	901	147.314009830473	100
0	901	147.314009830473	100
0	915	149.127744073631	101
0	915	149.127744073631	101
0	915	149.127744073631	101
0	929	150.878865114996	102
0	929	150.878865114996	102
0	929	150.878865114996	102
0	943	152.10386883712	103
0	943	152.10386883712	103
0	943	152.10386883712	103
0	945	153.48633629887	104
0	945	153.48633629887	104
0	945	153.48633629887	104
0	959	155.086028503371	105
0	959	155.086028503371	105
0	959	155.086028503371	105
0	973	156.144391149865	106
0	973	156.144391149865	106
0	973	156.144391149865	106
0	987	157.511753742467	107
0	987	157.511753742467	107
0	987	157.511753742467	107
0	1001	159.015263255569	108
0	1001	159.015263255569	108
0	1001	159.015263255569	108
0	1003	160.705058582942	109
0	1003	160.705058582942	109
0	1003	160.705058582942	109
0	1005	162.103717642254	110
0	1005	162.103717642254	110
0	1005	162.103717642254	110
0	1010	164.04797661223	111
0	1010	164.04797661223	111
0	1010	164.04797661223	111
0	1024	165.161772969295	112
0	1024	165.161772969295	112
0	1024	165.161772969295	112
0	1038	166.503968227771	113
0	1038	166.503968227771	113
0	1038	166.503968227771	113
0	1040	168.374159974162	114
0	1040	168.374159974162	114
0	1040	168.374159974162	114
0	1054	169.599885841715	115
0	1054	169.599885841715	115
0	1054	169.599885841715	115
0	1068	171.268682442955	116
0	1068	171.268682442955	116
0	1068	171.268682442955	116
0	1082	172.519882417866	117
0	1082	172.519882417866	117
0	1082	172.519882417866	117
0	1096	173.973941473174	118
0	1096	173.973941473174	118
0	1096	173.973941473174	118
0	1110	175.93852287496	119
0	1110	175.93852287496	119
0	1110	175.93852287496	119
0	1124	177.879350838834	120
0	1124	177.879350838834	120
0	1124	177.879350838834	120
0	1138	179.578724525054	121
0	1138	179.578724525054	121
0	1138	179.578724525054	121
0	1152	181.203545822413	122
0	1152	181.203545822413	122
0	1152	181.203545822413	122
0	1166	182.421542997589	123
0	1166	182.421542997589	123
0	1166	182.421542997589	123
0	1180	184.009910327732	124
0	1180	184.009910327732	124
0	1180	184.009910327732	124
0	1182	185.6668421902	125
0	1182	185.6668421902	125
0	1182	185.6668421902	125
0	1196	186.970187859028	126
0	1196	186.970187859028	126
0	1196	186.970187859028	126
0	1210	188.936973303673	127
0	1210	188.936973303673	127
0	1210	188.936973303673	127
0	1224	190.634121834417	128
0	1224	190.634121834417	128
0	1224	190.634121834417	128
0	1226	191.66034186061	129
0	1226	191.66034186061	129
0	1226	191.66034186061	129
0	1237	192.77537687181	130
0	1237	192.77537687181	130
0	1237	192.77537687181	130
0	1239	194.115379917784	131
0	1239	194.115379917784	131
0	1239	194.115379917784	131
0	1253	195.84477761283	132
0	1253	195.84477761283	132
0	1253	195.84477761283	132
0	1267	197.69857053773	133
0	1267	197.69857053773	133
0	1267	197.69857053773	133
0	1281	199.326810139115	134
0	1281	199.326810139115	134
0	1281	199.326810139115	134
0	1295	201.283493691706	135
0	1295	201.283493691706	135
0	1295	201.283493691706	135
0	1309	202.305765200523	136
0	1309	202.305765200523	136
0	1309	202.305765200523	136
0	1311	203.727171631647	137
0	1311	203.727171631647	137
0	1311	203.727171631647	137
0	1313	205.623494189117	138
0	1313	205.623494189117	138
0	1313	205.623494189117	138
0	1321	207.404417927494	139
0	1321	207.404417927494	139
0	1321	207.404417927494	139
0	1335	208.791407156387	140
0	1335	208.791407156387	140
0	1335	208.791407156387	140
0	1340	210.600970829954	141
0	1340	210.600970829954	141
0	1340	210.600970829954	141
0	1351	212.060927562533	142
0	1351	212.060927562533	142
0	1351	212.060927562533	142
0	1359	213.1947008	143
0	1359	213.1947008	143
0	1359	213.1947008	143
0	1373	214.379683769426	144
0	1373	214.379683769426	144
0	1373	214.379683769426	144
0	1384	215.655521132636	145
0	1384	215.655521132636	145
0	1384	215.655521132636	145
0	1398	217.106164396626	146
0	1398	217.106164396626	146
0	1398	217.106164396626	146
0	1412	218.114288516461	147
0	1412	218.114288516461	147
0	1412	218.114288516461	147
0	1417	219.810558598607	148
0	1417	219.810558598607	148
0	1417	219.810558598607	148
0	1428	221.311810213958	149
0	1428	221.311810213958	149
0	1428	221.311810213958	149
0	1430	222.589010321886	150
0	1430	222.589010321886	150
0	1430	222.589010321886	150
0	1441	223.698987143698	151
0	1441	223.698987143698	151
0	1441	223.698987143698	151
0	1452	225.298727488729	152
0	1452	225.298727488729	152
0	1452	225.298727488729	152
0	1463	226.515182605364	153
0	1463	226.515182605364	153
0	1463	226.515182605364	153
0	1477	227.796483873042	154
0	1477	227.796483873042	154
0	1477	227.796483873042	154
0	1491	229.243705478382	155
0	1491	229.243705478382	155
0	1491	229.243705478382	155
0	1499	230.421570226435	156
0	1499	230.421570226435	156
0	1499	230.421570226435	156
0	1501	231.789171494894	157
0	1501	231.789171494894	157
0	1501	231.789171494894	157
0	1503	233.083033986507	158
0	1503	233.083033986507	158
0	1503	233.083033986507	158
0	1517	234.968683578424	159
0	1517	234.968683578424	159
0	1517	234.968683578424	159
0	1519	236.19449050387	160
0	1519	236.19449050387	160
0	1519	236.19449050387	160
0	1521	237.74023470597	161
0	1521	237.74023470597	161
0	1521	237.74023470597	161
0	1535	239.647630845314	162
0	1535	239.647630845314	162
0	1535	239.647630845314	162
0	1549	241.41725167574	163
0	1549	241.41725167574	163
0	1549	241.41725167574	163
0	1551	242.907446990606	164
0	1551	242.907446990606	164
0	1551	242.907446990606	164
0	1553	244.163878912224	165
0	1553	244.163878912224	165
0	1553	244.163878912224	165
0	1567	245.803853477004	166
0	1567	245.803853477004	166
0	1567	245.803853477004	166
0	1569	247.665449057824	167
0	1569	247.665449057824	167
0	1569	247.665449057824	167
0	1583	249.598604823814	168
0	1583	249.598604823814	168
0	1583	249.598604823814	168
0	1585	250.907917937615	169
0	1585	250.907917937615	169
0	1585	250.907917937615	169
0	1587	252.540247817875	170
0	1587	252.540247817875	170
0	1587	252.540247817875	170
0	1601	254.4609310705	171
0	1601	254.4609310705	171
0	1601	254.4609310705	171
0	1615	255.518906881918	172
0	1615	255.518906881918	172
0	1615	255.518906881918	172
0	1623	256.710332474789	173
0	1623	256.710332474789	173
0	1623	256.710332474789	173
0	1637	257.906264416525	174
0	1637	257.906264416525	174
0	1637	257.906264416525	174
0	1651	259.320417231532	175
0	1651	259.320417231532	175
0	1651	259.320417231532	175
0	1665	260.602262317553	176
0	1665	260.602262317553	176
0	1665	260.602262317553	176
0	1667	262.492718864117	177
0	1667	262.492718864117	177
0	1667	262.492718864117	177
0	1681	263.577001910541	178
0	1681	263.577001910541	178
0	1681	263.577001910541	178
0	1695	265.207069356577	179
0	1695	265.207069356577	179
0	1695	265.207069356577	179
0	1709	266.571434830665	180
0	1709	266.571434830665	180
0	1709	266.571434830665	180
0	1723	268.153831738164	181
0	1723	268.153831738164	181
0	1723	268.153831738164	181
0	1737	269.662313748966	182
0	1737	269.662313748966	182
0	1737	269.662313748966	182
0	1751	271.203428586829	183
0	1751	271.203428586829	183
0	1751	271.203428586829	183
0	1753	272.854436198832	184
0	1753	272.854436198832	184
0	1753	272.854436198832	184
0	1755	274.706620666082	185
0	1755	274.706620666082	185
0	1755	274.706620666082	185
0	1766	276.618383840541	186
0	1766	276.618383840541	186
0	1766	276.618383840541	186
0	1780	278.003527137567	187
0	1780	278.003527137567	187
0	1780	278.003527137567	187
0	1794	279.245085547794	188
0	1794	279.245085547794	188
0	1794	279.245085547794	188
0	1808	280.682022232911	189
0	1808	280.682022232911	189
0	1808	280.682022232911	189
0	1822	281.76521211618	190
0	1822	281.76521211618	190
0	1822	281.76521211618	190
0	1836	283.278872072114	191
0	1836	283.278872072114	191
0	1836	283.278872072114	191
0	1850	284.74375969998	192
0	1850	284.74375969998	192
0	1850	284.74375969998	192
0	1864	286.472857654909	193
0	1864	286.472857654909	193
0	1864	286.472857654909	193
0	1878	287.516679162043	194
0	1878	287.516679162043	194
0	1878	287.516679162043	194
0	1892	288.842593333102	195
0	1892	288.842593333102	195
0	1892	288.842593333102	195
0	1906	289.973286156892	196
0	1906	289.973286156892	196
0	1906	289.973286156892	196
0	1908	291.883577405824	197
0	1908	291.883577405824	197
0	1908	291.883577405824	197
0	1922	293.621572901844	198
0	1922	293.621572901844	198
0	1922	293.621572901844	198
0	1933	295.49469239905	199
0	1933	295.49469239905	199
0	1933	295.49469239905	199
0	1941	297.049917712924	200
0	1941	297.049917712924	200
0	1941	297.049917712924	200
0	1955	298.503190846066	201
0	1955	298.503190846066	201
0	1955	298.503190846066	201
0	1957	300.002531953272	202
0	1957	300.002531953272	202
0	1957	300.002531953272	202
0	1959	301.158432467491	203
0	1959	301.158432467491	203
0	1959	301.158432467491	203
0	1970	303.081071164109	204
0	1970	303.081071164109	204
0	1970	303.081071164109	204
0	1984	304.158725482062	205
0	1984	304.158725482062	205
0	1984	304.158725482062	205
0	1995	305.624991954187	206
0	1995	305.624991954187	206
0	1995	305.624991954187	206
0	1997	306.702107786549	207
0	1997	306.702107786549	207
0	1997	306.702107786549	207
0	2011	307.819484709412	208
0	2011	307.819484709412	208
0	2011	307.819484709412	208
0	2013	309.456383401876	209
0	2013	309.456383401876	209
0	2013	309.456383401876	209
0	2027	310.570349163957	210
0	2027	310.570349163957	210
0	2027	310.570349163957	210
0	2041	311.742615708731	211
0	2041	311.742615708731	211
0	2041	311.742615708731	211
0	2052	313.678035819553	212
0	2052	313.678035819553	212
0	2052	313.678035819553	212
0	2066	315.221991711877	213
0	2066	315.221991711877	213
0	2066	315.221991711877	213
0	2068	317.06183242204	214
0	2068	317.06183242204	214
0	2068	317.06183242204	214
0	2082	318.660840179188	215
0	2082	318.660840179188	215
0	2082	318.660840179188	215
0	2096	320.001987003837	216
0	2096	320.001987003837	216
0	2096	320.001987003837	216
0	2098	321.028187063871	217
0	2098	321.028187063871	217
0	2098	321.028187063871	217
0	2100	322.892331161885	218
0	2100	322.892331161885	218
0	2100	322.892331161885	218
0	2114	324.720548845711	219
0	2114	324.720548845711	219
0	2114	324.720548845711	219
0	2116	326.253471408621	220
0	2116	326.253471408621	220
0	2116	326.253471408621	220
0	2118	328.14010872005	221
0	2118	328.14010872005	221
0	2118	328.14010872005	221
0	2126	329.650007097865	222
0	2126	329.650007097865	222
0	2126	329.650007097865	222
0	2128	331.371678106836	223
0	2128	331.371678106836	223
0	2128	331.371678106836	223
0	2130	332.970467026695	224
0	2130	332.970467026695	224
0	2130	332.970467026695	224
0	2132	334.328935969039	225
0	2132	334.328935969039	225
0	2132	334.328935969039	225
0	2146	336.287124710973	226
0	2146	336.287124710973	226
0	2146	336.287124710973	226
0	2160	337.64769954572	227
0	2160	337.64769954572	227
0	2160	337.64769954572	227
0	2174	338.896123791463	228
0	2174	338.896123791463	228
0	2174	338.896123791463	228
0	2176	340.468854651205	229
0	2176	340.468854651205	229
0	2176	340.468854651205	229
0	2190	342.320293557016	230
0	2190	342.320293557016	230
0	2190	342.320293557016	230
0	2192	343.405213619001	231
0	2192	343.405213619001	231
0	2192	343.405213619001	231
0	2206	344.829505990842	232
0	2206	344.829505990842	232
0	2206	344.829505990842	232
0	2208	346.455817183131	233
0	2208	346.455817183131	233
0	2208	346.455817183131	233
0	2213	347.927636243054	234
0	2213	347.927636243054	234
0	2213	347.927636243054	234
0	2227	349.283213742427	235
0	2227	349.283213742427	235
0	2227	349.283213742427	235
0	2241	351.164382056217	236
0	2241	351.164382056217	236
0	2241	351.164382056217	236
0	2243	352.275296418113	237
0	2243	352.275296418113	237
0	2243	352.275296418113	237
0	2257	353.72665827896	238
0	2257	353.72665827896	238
0	2257	353.72665827896	238
0	2271	355.133097288083	239
0	2271	355.133097288083	239
0	2271	355.133097288083	239
0	2273	356.63319054863	240
0	2273	356.63319054863	240
0	2273	356.63319054863	240
0	2287	358.237354154815	241
0	2287	358.237354154815	241
0	2287	358.237354154815	241
0	2301	359.858503343421	242
0	2301	359.858503343421	242
0	2301	359.858503343421	242
0	2315	361.012386718416	243
0	2315	361.012386718416	243
0	2315	361.012386718416	243
0	2329	362.286860830267	244
0	2329	362.286860830267	244
0	2329	362.286860830267	244
0	2343	363.661070370465	245
0	2343	363.661070370465	245
0	2343	363.661070370465	245
0	2354	364.771627814393	246
0	2354	364.771627814393	246
0	2354	364.771627814393	246
0	2368	366.530015096884	247
0	2368	366.530015096884	247
0	2368	366.530015096884	247
0	2382	368.025127457339	248
0	2382	368.025127457339	248
0	2382	368.025127457339	248
0	2396	369.166199755041	249
0	2396	369.166199755041	249
0	2396	369.166199755041	249
0	2410	371.096192845028	250
0	2410	371.096192845028	250
0	2410	371.096192845028	250
0	2424	372.163241216565	251
0	2424	372.163241216565	251
0	2424	372.163241216565	251
0	2438	373.537321398618	252
0	2438	373.537321398618	252
0	2438	373.537321398618	252
0	2440	375.348516939791	253
0	2440	375.348516939791	253
0	2440	375.348516939791	253
0	2442	376.53978899133	254
0	2442	376.53978899133	254
0	2442	376.53978899133	254
0	2456	378.511003147695	255
0	2456	378.511003147695	255
0	2456	378.511003147695	255
0	2470	379.526424966404	256
0	2470	379.526424966404	256
0	2470	379.526424966404	256
0	2472	380.780524088187	257
0	2472	380.780524088187	257
0	2472	380.780524088187	257
0	2474	382.704139839277	258
0	2474	382.704139839277	258
0	2474	382.704139839277	258
0	2488	384.517834447675	259
0	2488	384.517834447675	259
0	2488	384.517834447675	259
0	2502	386.091395534227	260
0	2502	386.091395534227	260
0	2502	386.091395534227	260
0	2504	387.966138337856	261
0	2504	387.966138337856	261
0	2504	387.966138337856	261
0	2518	389.592347267434	262
0	2518	389.592347267434	262
0	2518	389.592347267434	262
0	2520	391.020162606031	263
0	2520	391.020162606031	263
0	2520	391.020162606031	263
0	2534	392.634944498191	264
0	2534	392.634944498191	264
0	2534	392.634944498191	264
0	2548	394.012538435987	265
0	2548	394.012538435987	265
0	2548	394.012538435987	265
0	2562	395.773873651984	266
0	2562	395.773873651984	266
0	2562	395.773873651984	266
0	2576	397.448086101214	267
0	2576	397.448086101214	267
0	2576	397.448086101214	267
0	2578	399.254671187025	268
0	2578	399.254671187025	268
0	2578	399.254671187025	268
0	2592	400.716787468294	269
0	2592	400.716787468294	269
0	2592	400.716787468294	269
0	2606	402.578693466146	270
0	2606	402.578693466146	270
0	2606	402.578693466146	270
0	2620	404.127418513528	271
0	2620	404.127418513528	271
0	2620	404.127418513528	271
0	2634	405.476145281807	272
0	2634	405.476145281807	272
0	2634	405.476145281807	272
0	2648	407.122739739135	273
0	2648	407.122739739135	273
0	2648	407.122739739135	273
0	2662	408.970242341632	274
0	2662	408.970242341632	274
0	2662	408.970242341632	274
0	2664	410.506879676018	275
0	2664	410.506879676018	275
0	2664	410.506879676018	275
0	2666	411.750643658104	276
0	2666	411.750643658104	276
0	2666	411.750643658104	276
0	2671	412.949323614246	277
0	2671	412.949323614246	277
0	2671	412.949323614246	277
0	2673	414.665561919917	278
0	2673	414.665561919917	278
0	2673	414.665561919917	278
0	2687	416.123683031068	279
0	2687	416.123683031068	279
0	2687	416.123683031068	279
0	2701	417.545174040018	280
0	2701	417.545174040018	280
0	2701	417.545174040018	280
0	2712	419.283480343759	281
0	2712	419.283480343759	281
0	2712	419.283480343759	281
0	2726	420.601425095346	282
0	2726	420.601425095346	282
0	2726	420.601425095346	282
0	2731	422.203939225642	283
0	2731	422.203939225642	283
0	2731	422.203939225642	283
0	2736	423.941746600788	284
0	2736	423.941746600788	284
0	2736	423.941746600788	284
0	2750	425.897753398517	285
0	2750	425.897753398517	285
0	2750	425.897753398517	285
0	2764	427.491507253494	286
0	2764	427.491507253494	286
0	2764	427.491507253494	286
0	2778	429.444041250624	287
0	2778	429.444041250624	287
0	2778	429.444041250624	287
0	2780	430.930780190859	288
0	2780	430.930780190859	288
0	2780	430.930780190859	288
0	2788	432.180558152614	289
0	2788	432.180558152614	289
0	2788	432.180558152614	289
0	2802	433.447598464206	290
0	2802	433.447598464206	290
0	2802	433.447598464206	290
0	2816	434.893343224773	291
0	2816	434.893343224773	291
0	2816	434.893343224773	291
0	2830	436.408118654625	292
0	2830	436.408118654625	292
0	2830	436.408118654625	292
0	2832	438.019635356148	293
0	2832	438.019635356148	293
0	2832	438.019635356148	293
0	2846	439.040936488309	294
0	2846	439.040936488309	294
0	2846	439.040936488309	294
0	2860	440.243299311376	295
0	2860	440.243299311376	295
0	2860	440.243299311376	295
0	2862	442.12059907557	296
0	2862	442.12059907557	296
0	2862	442.12059907557	296
0	2876	443.422772495193	297
0	2876	443.422772495193	297
0	2876	443.422772495193	297
0	2887	445.313077517902	298
0	2887	445.313077517902	298
0	2887	445.313077517902	298
0	2901	446.547183018062	299
0	2901	446.547183018062	299
0	2901	446.547183018062	299
0	2915	448.221789886594	300
0	2915	448.221789886594	300
0	2915	448.221789886594	300
0	2926	450.097791073263	301
0	2926	450.097791073263	301
0	2926	450.097791073263	301
0	2940	451.358189267923	302
0	2940	451.358189267923	302
0	2940	451.358189267923	302
0	2942	452.452512611055	303
0	2942	452.452512611055	303
0	2942	452.452512611055	303
0	2956	454.210693235628	304
0	2956	454.210693235628	304
0	2956	454.210693235628	304
0	2970	455.701809632012	305
0	2970	455.701809632012	305
0	2970	455.701809632012	305
0	2984	456.866781897729	306
0	2984	456.866781897729	306
0	2984	456.866781897729	306
0	2998	458.08532756672	307
0	2998	458.08532756672	307
0	2998	458.08532756672	307
0	3012	459.913507783904	308
0	3012	459.913507783904	308
0	3012	459.913507783904	308
0	3014	460.919590946638	309
0	3014	460.919590946638	309
0	3014	460.919590946638	309
0	3028	462.718417032507	310
0	3028	462.718417032507	310
0	3028	462.718417032507	310
0	3042	464.089192011279	311
0	3042	464.089192011279	311
0	3042	464.089192011279	311
0	3053	466.013702157537	312
0	3053	466.013702157537	312
0	3053	466.013702157537	312
0	3067	467.963459623164	313
0	3067	467.963459623164	313
0	3067	467.963459623164	313
0	3081	468.964574450279	314
0	3081	468.964574450279	314
0	3081	468.964574450279	314
0	3086	470.151196086198	315
0	3086	470.151196086198	315
0	3086	470.151196086198	315
0	3088	471.582758337609	316
0	3088	471.582758337609	316
0	3088	471.582758337609	316
0	3102	473.322989425273	317
0	3102	473.322989425273	317
0	3102	473.322989425273	317
0	3113	474.344674825785	318
0	3113	474.344674825785	318
0	3113	474.344674825785	318
0	3127	475.676434344263	319
0	3127	475.676434344263	319
0	3127	475.676434344263	319
0	3132	477.315382161993	320
0	3132	477.315382161993	320
0	3132	477.315382161993	320
0	3137	479.078816039837	321
0	3137	479.078816039837	321
0	3137	479.078816039837	321
0	3139	480.445675359922	322
0	3139	480.445675359922	322
0	3139	480.445675359922	322
0	3144	481.826039647101	323
0	3144	481.826039647101	323
0	3144	481.826039647101	323
0	3146	482.938190132961	324
0	3146	482.938190132961	324
0	3146	482.938190132961	324
0	3160	484.535957529558	325
0	3160	484.535957529558	325
0	3160	484.535957529558	325
0	3174	485.704434498795	326
0	3174	485.704434498795	326
0	3174	485.704434498795	326
0	3188	486.882572132046	327
0	3188	486.882572132046	327
0	3188	486.882572132046	327
0	3202	488.198226266424	328
0	3202	488.198226266424	328
0	3202	488.198226266424	328
0	3216	490.154497549287	329
0	3216	490.154497549287	329
0	3216	490.154497549287	329
0	3230	491.668655817513	330
0	3230	491.668655817513	330
0	3230	491.668655817513	330
0	3232	492.84687953128	331
0	3232	492.84687953128	331
0	3232	492.84687953128	331
0	3246	494.542727982509	332
0	3246	494.542727982509	332
0	3246	494.542727982509	332
0	3248	496.466537464294	333
0	3248	496.466537464294	333
0	3248	496.466537464294	333
0	3259	497.576079180348	334
0	3259	497.576079180348	334
0	3259	497.576079180348	334
0	3273	498.640665901243	335
0	3273	498.640665901243	335
0	3273	498.640665901243	335
0	3284	500.406890708837	336
0	3284	500.406890708837	336
0	3284	500.406890708837	336
0	3286	502.373738886672	337
0	3286	502.373738886672	337
0	3286	502.373738886672	337
0	3300	504.338926881435	338
0	3300	504.338926881435	338
0	3300	504.338926881435	338
0	3302	506.338849299471	339
0	3302	506.338849299471	339
0	3302	506.338849299471	339
0	3316	507.40220980451	340
0	3316	507.40220980451	340
0	3316	507.40220980451	340
0	3330	508.725612227922	341
0	3330	508.725612227922	341
0	3330	508.725612227922	341
0	3344	510.203984058113	342
0	3344	510.203984058113	342
0	3344	510.203984058113	342
0	3346	511.380530725583	343
0	3346	511.380530725583	343
0	3346	511.380530725583	343
0	3360	512.758344272734	344
0	3360	512.758344272734	344
0	3360	512.758344272734	344
0	3362	514.583353608265	345
0	3362	514.583353608265	345
0	3362	514.583353608265	345
0	3364	515.888615078875	346
0	3364	515.888615078875	346
0	3364	515.888615078875	346
0	3378	517.833770392812	347
0	3378	517.833770392812	347
0	3378	517.833770392812	347
0	3380	519.493480202393	348
0	3380	519.493480202393	348
0	3380	519.493480202393	348
0	3394	520.918851278606	349
0	3394	520.918851278606	349
0	3394	520.918851278606	349
0	3408	522.7309668503	350
0	3408	522.7309668503	350
0	3408	522.7309668503	350
0	3422	524.680462211021	351
0	3422	524.680462211021	351
0	3422	524.680462211021	351
0	3436	526.123573614168	352
0	3436	526.123573614168	352
0	3436	526.123573614168	352
0	3450	527.538021751796	353
0	3450	527.538021751796	353
0	3450	527.538021751796	353
0	3464	528.562303173705	354
0	3464	528.562303173705	354
0	3464	528.562303173705	354
0	3478	530.29053130222	355
0	3478	530.29053130222	355
0	3478	530.29053130222	355
0	3492	531.48492632003	356