version 3
run General-4-20231019-19:47:19-63521
attr configname General
attr datetime 20231019-19:47:19
attr datetimef 20231019-194719
attr experiment General
attr inifile omnetpp.ini
attr iterationvars ""
attr iterationvarsd ""
attr iterationvarsf ""
attr measurement ""
attr network Reliability
attr processid 63521
attr repetition 4
attr replication #4
attr resultdir results
attr runnumber 4
attr seedset 4
config network Reliability
config Reliability.node[*].transmissionTime "uniform(1s, 2s)"
config Reliability.node[*].delayTime "uniform(0.01s, 0.2s)"
config Reliability.node[*].lossProbability 0.3
config record-eventlog true
config sim-time-limit 1000s
config repeat 5

vector 0 Reliability.node[0] txVector ETV
vector 1 Reliability.node[1] txVector ETV
vector 2 Reliability.node[1] rxVector ETV
vector 3 Reliability.node[2] txVector ETV
vector 4 Reliability.node[2] rxVector ETV
vector 5 Reliability.node[4] txVector ETV
vector 6 Reliability.node[4] rxVector ETV
vector 7 Reliability.node[3] txVector ETV
vector 8 Reliability.node[3] rxVector ETV
vector 9 Reliability.node[0] rxVector ETV
vector 10 Reliability.node[5] rxVector ETV
vector 11 Reliability.node[5] e2eVector ETV
0	1	0.193735669288	1
0	1	0.193735669288	1
0	1	0.193735669288	1
0	3	1.740967922532	2
0	3	1.740967922532	2
0	3	1.740967922532	2
0	17	3.596588867404	3
0	17	3.596588867404	3
0	17	3.596588867404	3
0	31	4.605574961905	4
0	31	4.605574961905	4
0	31	4.605574961905	4
0	45	6.530728120976	5
0	45	6.530728120976	5
0	45	6.530728120976	5
0	59	7.709702029046	6
0	59	7.709702029046	6
0	59	7.709702029046	6
0	73	9.656776055847	7
0	73	9.656776055847	7
0	73	9.656776055847	7
0	75	11.389369507939	8
0	75	11.389369507939	8
0	75	11.389369507939	8
0	89	13.196386054311	9
0	89	13.196386054311	9
0	89	13.196386054311	9
0	103	15.040093042342	10
0	103	15.040093042342	10
0	103	15.040093042342	10
0	117	16.58546995643	11
0	117	16.58546995643	11
0	117	16.58546995643	11
0	119	18.197291775527	12
0	119	18.197291775527	12
0	119	18.197291775527	12
0	133	19.506086340095	13
0	133	19.506086340095	13
0	133	19.506086340095	13
0	147	21.049376653894	14
0	147	21.049376653894	14
0	147	21.049376653894	14
0	161	22.459012143002	15
0	161	22.459012143002	15
0	161	22.459012143002	15
0	163	23.547785003591	16
0	163	23.547785003591	16
0	163	23.547785003591	16
0	177	25.321756630126	17
0	177	25.321756630126	17
0	177	25.321756630126	17
0	191	26.412667176608	18
0	191	26.412667176608	18
0	191	26.412667176608	18
0	205	27.607614864284	19
0	205	27.607614864284	19
0	205	27.607614864284	19
0	213	28.941071244111	20
0	213	28.941071244111	20
0	213	28.941071244111	20
0	227	30.403921002211	21
0	227	30.403921002211	21
0	227	30.403921002211	21
0	241	32.003718491798	22
0	241	32.003718491798	22
0	241	32.003718491798	22
0	252	33.795719070747	23
0	252	33.795719070747	23
0	252	33.795719070747	23
0	257	35.363088038206	24
0	257	35.363088038206	24
0	257	35.363088038206	24
0	271	37.314756630376	25
0	271	37.314756630376	25
0	271	37.314756630376	25
0	285	38.924863027098	26
0	285	38.924863027098	26
0	285	38.924863027098	26
0	287	40.858405656103	27
0	287	40.858405656103	27
0	287	40.858405656103	27
0	289	42.222382977294	28
0	289	42.222382977294	28
0	289	42.222382977294	28
0	303	44.103784572488	29
0	303	44.103784572488	29
0	303	44.103784572488	29
0	317	46.011246778924	30
0	317	46.011246778924	30
0	317	46.011246778924	30
0	331	47.253392425287	31
0	331	47.253392425287	31
0	331	47.253392425287	31
0	345	49.017601264562	32
0	345	49.017601264562	32
0	345	49.017601264562	32
0	359	50.88584584246	33
0	359	50.88584584246	33
0	359	50.88584584246	33
0	361	52.582897281429	34
0	361	52.582897281429	34
0	361	52.582897281429	34
0	375	53.827579211366	35
0	375	53.827579211366	35
0	375	53.827579211366	35
0	389	55.34432597404	36
0	389	55.34432597404	36
0	389	55.34432597404	36
0	403	56.835433552197	37
0	403	56.835433552197	37
0	403	56.835433552197	37
0	417	57.917147573239	38
0	417	57.917147573239	38
0	417	57.917147573239	38
0	431	59.064552921259	39
0	431	59.064552921259	39
0	431	59.064552921259	39
0	433	60.765360153669	40
0	433	60.765360153669	40
0	433	60.765360153669	40
0	444	61.997059682307	41
0	444	61.997059682307	41
0	444	61.997059682307	41
0	449	63.634311793295	42
0	449	63.634311793295	42
0	449	63.634311793295	42
0	451	64.852264980709	43
0	451	64.852264980709	43
0	451	64.852264980709	43
0	453	66.330615511088	44
0	453	66.330615511088	44
0	453	66.330615511088	44
0	461	67.427465933532	45
0	461	67.427465933532	45
0	461	67.427465933532	45
0	466	69.069310850621	46
0	466	69.069310850621	46
0	466	69.069310850621	46
0	480	70.298034629942	47
0	480	70.298034629942	47
0	480	70.298034629942	47
0	494	71.883718006005	48
0	494	71.883718006005	48
0	494	71.883718006005	48
0	496	73.793778673671	49
0	496	73.793778673671	49
0	496	73.793778673671	49
0	510	75.603860939545	50
0	510	75.603860939545	50
0	510	75.603860939545	50
0	524	76.995839016204	51
0	524	76.995839016204	51
0	524	76.995839016204	51
0	538	78.757024570992	52
0	538	78.757024570992	52
0	538	78.757024570992	52
0	540	80.599064459018	53
0	540	80.599064459018	53
0	540	80.599064459018	53
0	551	81.868970238994	54
0	551	81.868970238994	54
0	551	81.868970238994	54
0	553	83.280270990142	55
0	553	83.280270990142	55
0	553	83.280270990142	55
0	567	84.287660086918	56
0	567	84.287660086918	56
0	567	84.287660086918	56
0	569	85.301556092379	57
0	569	85.301556092379	57
0	569	85.301556092379	57
0	571	86.302462767502	58
0	571	86.302462767502	58
0	571	86.302462767502	58
0	582	87.689961326699	59
0	582	87.689961326699	59
0	582	87.689961326699	59
0	593	89.668282762327	60
0	593	89.668282762327	60
0	593	89.668282762327	60
0	607	90.907027415623	61
0	607	90.907027415623	61
0	607	90.907027415623	61
0	621	92.769498537219	62
0	621	92.769498537219	62
0	621	92.769498537219	62
0	632	94.379419704358	63
0	632	94.379419704358	63
0	632	94.379419704358	63
0	643	96.066383231123	64
0	643	96.066383231123	64
0	643	96.066383231123	64
0	657	97.115032718907	65
0	657	97.115032718907	65
0	657	97.115032718907	65
0	659	98.253171496949	66
0	659	98.253171496949	66
0	659	98.253171496949	66
0	673	100.057638494455	67
0	673	100.057638494455	67
0	673	100.057638494455	67
0	687	101.693206128821	68
0	687	101.693206128821	68
0	687	101.693206128821	68
0	701	102.753393172676	69
0	701	102.753393172676	69
0	701	102.753393172676	69
0	703	104.632195042603	70
0	703	104.632195042603	70
0	703	104.632195042603	70
0	717	106.413900398806	71
0	717	106.413900398806	71
0	717	106.413900398806	71
0	731	107.551848730229	72
0	731	107.551848730229	72
0	731	107.551848730229	72
0	733	109.328717461012	73
0	733	109.328717461012	73
0	733	109.328717461012	73
0	747	110.457910993758	74
0	747	110.457910993758	74
0	747	110.457910993758	74
0	749	111.511012558516	75
0	749	111.511012558516	75
0	749	111.511012558516	75
0	763	113.137159333488	76
0	763	113.137159333488	76
0	763	113.137159333488	76
0	777	114.656360193545	77
0	777	114.656360193545	77
0	777	114.656360193545	77
0	791	115.96714238419	78
0	791	115.96714238419	78
0	791	115.96714238419	78
0	793	117.149929519666	79
0	793	117.149929519666	79
0	793	117.149929519666	79
0	807	118.688534940283	80
0	807	118.688534940283	80
0	807	118.688534940283	80
0	821	120.416491463238	81
0	821	120.416491463238	81
0	821	120.416491463238	81
0	823	121.501812445622	82
0	823	121.501812445622	82
0	823	121.501812445622	82
0	837	122.601493531063	83
0	837	122.601493531063	83
0	837	122.601493531063	83
0	848	124.272489963954	84
0	848	124.272489963954	84
0	848	124.272489963954	84
0	862	125.59168456557	85
0	862	125.59168456557	85
0	862	125.59168456557	85
0	876	126.729013913933	86
0	876	126.729013913933	86
0	876	126.729013913933	86
0	878	127.742351084173	87
0	878	127.742351084173	87
0	878	127.742351084173	87
0	892	129.451067293685	88
0	892	129.451067293685	88
0	892	129.451067293685	88
0	906	130.490576378459	89
0	906	130.490576378459	89
0	906	130.490576378459	89
0	908	132.211133628309	90
0	908	132.211133628309	90
0	908	132.211133628309	90
0	910	133.690935598843	91
0	910	133.690935598843	91
0	910	133.690935598843	91
0	924	135.313269931747	92
0	924	135.313269931747	92
0	924	135.313269931747	92
0	932	136.972952491295	93
0	932	136.972952491295	93
0	932	136.972952491295	93
0	946	137.993926403037	94
0	946	137.993926403037	94
0	946	137.993926403037	94
0	960	139.492723654181	95
0	960	139.492723654181	95
0	960	139.492723654181	95
0	974	141.410770485567	96
0	974	141.410770485567	96
0	974	141.410770485567	96
0	976	142.891851636505	97
0	976	142.891851636505	97
0	976	142.891851636505	97
0	978	144.196550294448	98
0	978	144.196550294448	98
0	978	144.196550294448	98
0	992	145.715045645291	99
0	992	145.715045645291	99
0	992	145.715045645291	99
0	994	147.305712019948	100
0	994	147.305712019948	100
0	994	147.305712019948	100
0	1005	148.977238104602	101
0	1005	148.977238104602	101
0	1005	148.977238104602	101
0	1007	150.502605503814	102
0	1007	150.502605503814	102
0	1007	150.502605503814	102
0	1009	151.71628749782	103
0	1009	151.71628749782	103
0	1009	151.71628749782	103
0	1023	152.750342640483	104
0	1023	152.750342640483	104
0	1023	152.750342640483	104
0	1037	154.508057129027	105
0	1037	154.508057129027	105
0	1037	154.508057129027	105
0	1051	156.371495160663	106
0	1051	156.371495160663	106
0	1051	156.371495160663	106
0	1065	157.709402378572	107
0	1065	157.709402378572	107
0	1065	157.709402378572	107
0	1070	159.096818960428	108
0	1070	159.096818960428	108
0	1070	159.096818960428	108
0	1072	160.468320337979	109
0	1072	160.468320337979	109
0	1072	160.468320337979	109
0	1086	161.638772811664	110
0	1086	161.638772811664	110
0	1086	161.638772811664	110
0	1100	163.163658108951	111
0	1100	163.163658108951	111
0	1100	163.163658108951	111
0	1114	164.949652569524	112
0	1114	164.949652569524	112
0	1114	164.949652569524	112
0	1116	166.840166547491	113
0	1116	166.840166547491	113
0	1116	166.840166547491	113
0	1118	167.98965345781	114
0	1118	167.98965345781	114
0	1118	167.98965345781	114
0	1120	169.406616643227	115
0	1120	169.406616643227	115
0	1120	169.406616643227	115
0	1131	170.588734266038	116
0	1131	170.588734266038	116
0	1131	170.588734266038	116
0	1145	171.863457469192	117
0	1145	171.863457469192	117
0	1145	171.863457469192	117
0	1156	173.426809255887	118
0	1156	173.426809255887	118
0	1156	173.426809255887	118
0	1170	175.100312198667	119
0	1170	175.100312198667	119
0	1170	175.100312198667	119
0	1172	176.533790772936	120
0	1172	176.533790772936	120
0	1172	176.533790772936	120
0	1186	178.226085671146	121
0	1186	178.226085671146	121
0	1186	178.226085671146	121
0	1188	179.735385595277	122
0	1188	179.735385595277	122
0	1188	179.735385595277	122
0	1190	181.336178341337	123
0	1190	181.336178341337	123
0	1190	181.336178341337	123
0	1195	182.793398955992	124
0	1195	182.793398955992	124
0	1195	182.793398955992	124
0	1209	184.371115135883	125
0	1209	184.371115135883	125
0	1209	184.371115135883	125
0	1223	186.345741566892	126
0	1223	186.345741566892	126
0	1223	186.345741566892	126
0	1234	188.340919802354	127
0	1234	188.340919802354	127
0	1234	188.340919802354	127
0	1248	190.044646525911	128
0	1248	190.044646525911	128
0	1248	190.044646525911	128
0	1250	191.110348232712	129
0	1250	191.110348232712	129
0	1250	191.110348232712	129
0	1264	192.95019165186	130
0	1264	192.95019165186	130
0	1264	192.95019165186	130
0	1266	194.690529052557	131
0	1266	194.690529052557	131
0	1266	194.690529052557	131
0	1280	195.861944727523	132
0	1280	195.861944727523	132
0	1280	195.861944727523	132
0	1282	197.418477152398	133
0	1282	197.418477152398	133
0	1282	197.418477152398	133
0	1296	198.662600423366	134
0	1296	198.662600423366	134
0	1296	198.662600423366	134
0	1310	199.722423111478	135
0	1310	199.722423111478	135
0	1310	199.722423111478	135
0	1312	201.598784677142	136
0	1312	201.598784677142	136
0	1312	201.598784677142	136
0	1314	203.501609354669	137
0	1314	203.501609354669	137
0	1314	203.501609354669	137
0	1319	204.580646050552	138
0	1319	204.580646050552	138
0	1319	204.580646050552	138
0	1333	205.815042629762	139
0	1333	205.815042629762	139
0	1333	205.815042629762	139
0	1347	206.949331313994	140
0	1347	206.949331313994	140
0	1347	206.949331313994	140
0	1361	208.414305748109	141
0	1361	208.414305748109	141
0	1361	208.414305748109	141
0	1363	209.869093501399	142
0	1363	209.869093501399	142
0	1363	209.869093501399	142
0	1377	211.836594142177	143
0	1377	211.836594142177	143
0	1377	211.836594142177	143
0	1391	213.150919022429	144
0	1391	213.150919022429	144
0	1391	213.150919022429	144
0	1405	214.99550814337	145
0	1405	214.99550814337	145
0	1405	214.99550814337	145
0	1419	216.154706427286	146
0	1419	216.154706427286	146
0	1419	216.154706427286	146
0	1421	217.625736988772	147
0	1421	217.625736988772	147
0	1421	217.625736988772	147
0	1423	219.085117879015	148
0	1423	219.085117879015	148
0	1423	219.085117879015	148
0	1425	220.99874095844	149
0	1425	220.99874095844	149
0	1425	220.99874095844	149
0	1430	222.339682479779	150
0	1430	222.339682479779	150
0	1430	222.339682479779	150
0	1444	223.962882242555	151
0	1444	223.962882242555	151
0	1444	223.962882242555	151
0	1458	225.756879533798	152
0	1458	225.756879533798	152
0	1458	225.756879533798	152
0	1472	227.55514660051	153
0	1472	227.55514660051	153
0	1472	227.55514660051	153
0	1486	228.962163085508	154
0	1486	228.962163085508	154
0	1486	228.962163085508	154
0	1500	230.271381975076	155
0	1500	230.271381975076	155
0	1500	230.271381975076	155
0	1502	232.168627135147	156
0	1502	232.168627135147	156
0	1502	232.168627135147	156
0	1516	233.706755598466	157
0	1516	233.706755598466	157
0	1516	233.706755598466	157
0	1530	235.337750276242	158
0	1530	235.337750276242	158
0	1530	235.337750276242	158
0	1532	236.837630289298	159
0	1532	236.837630289298	159
0	1532	236.837630289298	159
0	1534	237.896915959118	160
0	1534	237.896915959118	160
0	1534	237.896915959118	160
0	1548	239.200799194321	161
0	1548	239.200799194321	161
0	1548	239.200799194321	161
0	1562	240.710844260564	162
0	1562	240.710844260564	162
0	1562	240.710844260564	162
0	1564	242.710261558805	163
0	1564	242.710261558805	163
0	1564	242.710261558805	163
0	1575	244.167743424576	164
0	1575	244.167743424576	164
0	1575	244.167743424576	164
0	1589	245.628357759135	165
0	1589	245.628357759135	165
0	1589	245.628357759135	165
0	1603	247.504112863371	166
0	1603	247.504112863371	166
0	1603	247.504112863371	166
0	1617	248.898628584033	167
0	1617	248.898628584033	167
0	1617	248.898628584033	167
0	1619	250.190099624841	168
0	1619	250.190099624841	168
0	1619	250.190099624841	168
0	1633	251.832464474876	169
0	1633	251.832464474876	169
0	1633	251.832464474876	169
0	1647	253.129963688942	170
0	1647	253.129963688942	170
0	1647	253.129963688942	170
0	1661	255.048254859092	171
0	1661	255.048254859092	171
0	1661	255.048254859092	171
0	1663	256.404807038529	172
0	1663	256.404807038529	172
0	1663	256.404807038529	172
0	1674	258.048950422013	173
0	1674	258.048950422013	173
0	1674	258.048950422013	173
0	1688	259.276157452648	174
0	1688	259.276157452648	174
0	1688	259.276157452648	174
0	1702	260.678639664703	175
0	1702	260.678639664703	175
0	1702	260.678639664703	175
0	1707	261.880098004515	176
0	1707	261.880098004515	176
0	1707	261.880098004515	176
0	1715	263.498359557164	177
0	1715	263.498359557164	177
0	1715	263.498359557164	177
0	1729	265.426811510154	178
0	1729	265.426811510154	178
0	1729	265.426811510154	178
0	1743	267.017779536934	179
0	1743	267.017779536934	179
0	1743	267.017779536934	179
0	1748	268.494565210694	180
0	1748	268.494565210694	180
0	1748	268.494565210694	180
0	1762	270.428016310947	181
0	1762	270.428016310947	181
0	1762	270.428016310947	181
0	1764	271.574882630415	182
0	1764	271.574882630415	182
0	1764	271.574882630415	182
0	1778	273.222673535038	183
0	1778	273.222673535038	183
0	1778	273.222673535038	183
0	1780	274.341830673784	184
0	1780	274.341830673784	184
0	1780	274.341830673784	184
0	1794	275.922080403816	185
0	1794	275.922080403816	185
0	1794	275.922080403816	185
0	1808	277.278609514859	186
0	1808	277.278609514859	186
0	1808	277.278609514859	186
0	1822	278.63174663267	187
0	1822	278.63174663267	187
0	1822	278.63174663267	187
0	1824	279.835764061118	188
0	1824	279.835764061118	188
0	1824	279.835764061118	188
0	1838	281.675661641563	189
0	1838	281.675661641563	189
0	1838	281.675661641563	189
0	1852	283.399838154361	190
0	1852	283.399838154361	190
0	1852	283.399838154361	190
0	1854	285.127511886571	191
0	1854	285.127511886571	191
0	1854	285.127511886571	191
0	1868	286.620726998819	192
0	1868	286.620726998819	192
0	1868	286.620726998819	192
0	1882	288.082553021533	193
0	1882	288.082553021533	193
0	1882	288.082553021533	193
0	1884	289.887203111469	194
0	1884	289.887203111469	194
0	1884	289.887203111469	194
0	1886	291.639756776548	195
0	1886	291.639756776548	195
0	1886	291.639756776548	195
0	1900	293.278720333629	196
0	1900	293.278720333629	196
0	1900	293.278720333629	196
0	1914	294.473122415754	197
0	1914	294.473122415754	197
0	1914	294.473122415754	197
0	1928	296.156384914338	198
0	1928	296.156384914338	198
0	1928	296.156384914338	198
0	1942	297.747558798797	199
0	1942	297.747558798797	199
0	1942	297.747558798797	199
0	1944	299.031644728656	200
0	1944	299.031644728656	200
0	1944	299.031644728656	200
0	1946	300.966034167835	201
0	1946	300.966034167835	201
0	1946	300.966034167835	201
0	1960	302.633466111419	202
0	1960	302.633466111419	202
0	1960	302.633466111419	202
0	1974	304.567969929815	203
0	1974	304.567969929815	203
0	1974	304.567969929815	203
0	1976	306.202975432078	204
0	1976	306.202975432078	204
0	1976	306.202975432078	204
0	1990	307.997518316066	205
0	1990	307.997518316066	205
0	1990	307.997518316066	205
0	1995	309.787776475461	206
0	1995	309.787776475461	206
0	1995	309.787776475461	206
0	2009	311.676645304696	207
0	2009	311.676645304696	207
0	2009	311.676645304696	207
0	2023	313.658805307388	208
0	2023	313.658805307388	208
0	2023	313.658805307388	208
0	2037	315.373631183445	209
0	2037	315.373631183445	209
0	2037	315.373631183445	209
0	2051	316.764736014572	210
0	2051	316.764736014572	210
0	2051	316.764736014572	210
0	2053	318.339502949654	211
0	2053	318.339502949654	211
0	2053	318.339502949654	211
0	2067	320.057023124224	212
0	2067	320.057023124224	212
0	2067	320.057023124224	212
0	2081	321.915843001953	213
0	2081	321.915843001953	213
0	2081	321.915843001953	213
0	2095	323.809696294055	214
0	2095	323.809696294055	214
0	2095	323.809696294055	214
0	2109	325.626026121122	215
0	2109	325.626026121122	215
0	2109	325.626026121122	215
0	2111	327.302342256685	216
0	2111	327.302342256685	216
0	2111	327.302342256685	216
0	2113	328.317579075382	217
0	2113	328.317579075382	217
0	2113	328.317579075382	217
0	2118	329.861679443079	218
0	2118	329.861679443079	218
0	2118	329.861679443079	218
0	2132	331.021358324136	219
0	2132	331.021358324136	219
0	2132	331.021358324136	219
0	2146	332.404299583673	220
0	2146	332.404299583673	220
0	2146	332.404299583673	220
0	2160	334.369446907347	221
0	2160	334.369446907347	221
0	2160	334.369446907347	221
0	2174	336.354031983219	222
0	2174	336.354031983219	222
0	2174	336.354031983219	222
0	2188	338.224451870579	223
0	2188	338.224451870579	223
0	2188	338.224451870579	223
0	2202	339.49010506637	224
0	2202	339.49010506637	224
0	2202	339.49010506637	224
0	2210	340.701455654265	225
0	2210	340.701455654265	225
0	2210	340.701455654265	225
0	2212	342.275520506004	226
0	2212	342.275520506004	226
0	2212	342.275520506004	226
0	2214	343.515163272774	227
0	2214	343.515163272774	227
0	2214	343.515163272774	227
0	2216	345.160752920821	228
0	2216	345.160752920821	228
0	2216	345.160752920821	228
0	2230	346.483325780524	229
0	2230	346.483325780524	229
0	2230	346.483325780524	229
0	2232	347.687706073668	230
0	2232	347.687706073668	230
0	2232	347.687706073668	230
0	2240	349.652526627449	231
0	2240	349.652526627449	231
0	2240	349.652526627449	231
0	2254	350.954795296924	232
0	2254	350.954795296924	232
0	2254	350.954795296924	232
0	2256	352.77344903342	233
0	2256	352.77344903342	233
0	2256	352.77344903342	233
0	2270	354.406248852066	234
0	2270	354.406248852066	234
0	2270	354.406248852066	234
0	2284	355.493504379564	235
0	2284	355.493504379564	235
0	2284	355.493504379564	235
0	2295	357.069820128069	236
0	2295	357.069820128069	236
0	2295	357.069820128069	236
0	2309	358.577358791991	237
0	2309	358.577358791991	237
0	2309	358.577358791991	237
0	2311	360.23798915666	238
0	2311	360.23798915666	238
0	2311	360.23798915666	238
0	2313	362.203716470314	239
0	2313	362.203716470314	239
0	2313	362.203716470314	239
0	2327	363.899049928564	240
0	2327	363.899049928564	240
0	2327	363.899049928564	240
0	2329	365.570246704541	241
0	2329	365.570246704541	241
0	2329	365.570246704541	241
0	2331	367.268204139232	242
0	2331	367.268204139232	242
0	2331	367.268204139232	242
0	2333	368.699651330629	243
0	2333	368.699651330629	243
0	2333	368.699651330629	243
0	2347	370.265776428779	244
0	2347	370.265776428779	244
0	2347	370.265776428779	244
0	2349	371.716461731506	245
0	2349	371.716461731506	245
0	2349	371.716461731506	245
0	2351	373.441308235436	246
0	2351	373.441308235436	246
0	2351	373.441308235436	246
0	2365	374.997647605988	247
0	2365	374.997647605988	247
0	2365	374.997647605988	247
0	2379	376.269537020161	248
0	2379	376.269537020161	248
0	2379	376.269537020161	248
0	2381	377.935066177662	249
0	2381	377.935066177662	249
0	2381	377.935066177662	249
0	2383	379.364670430695	250
0	2383	379.364670430695	250
0	2383	379.364670430695	250
0	2385	381.033064049588	251
0	2385	381.033064049588	251
0	2385	381.033064049588	251
0	2399	382.722771867098	252
0	2399	382.722771867098	252
0	2399	382.722771867098	252
0	2413	383.936403812295	253
0	2413	383.936403812295	253
0	2413	383.936403812295	253
0	2427	385.900783450263	254
0	2427	385.900783450263	254
0	2427	385.900783450263	254
0	2429	386.937111520594	255
0	2429	386.937111520594	255
0	2429	386.937111520594	255
0	2443	388.339277923027	256
0	2443	388.339277923027	256
0	2443	388.339277923027	256
0	2454	389.370110208787	257
0	2454	389.370110208787	257
0	2454	389.370110208787	257
0	2459	390.499158044498	258
0	2459	390.499158044498	258
0	2459	390.499158044498	258
0	2470	392.476635108621	259
0	2470	392.476635108621	259
0	2470	392.476635108621	259
0	2484	394.143774913077	260
0	2484	394.143774913077	260
0	2484	394.143774913077	260
0	2498	395.615420577966	261
0	2498	395.615420577966	261
0	2498	395.615420577966	261
0	2509	397.387523186311	262
0	2509	397.387523186311	262
0	2509	397.387523186311	262
0	2514	398.456642140319	263
0	2514	398.456642140319	263
0	2514	398.456642140319	263
0	2528	400.373304033802	264
0	2528	400.373304033802	264
0	2528	400.373304033802	264
0	2530	402.10465373952	265
0	2530	402.10465373952	265
0	2530	402.10465373952	265
0	2544	403.740317731314	266
0	2544	403.740317731314	266
0	2544	403.740317731314	266
0	2558	405.174685948212	267
0	2558	405.174685948212	267
0	2558	405.174685948212	267
0	2560	406.787976429714	268
0	2560	406.787976429714	268
0	2560	406.787976429714	268
0	2574	408.331707889596	269
0	2574	408.331707889596	269
0	2574	408.331707889596	269
0	2588	410.167304992359	270
0	2588	410.167304992359	270
0	2588	410.167304992359	270
0	2593	411.988352650227	271
0	2593	411.988352650227	271
0	2593	411.988352650227	271
0	2607	413.31889205208	272
0	2607	413.31889205208	272
0	2607	413.31889205208	272
0	2621	414.455170965902	273
0	2621	414.455170965902	273
0	2621	414.455170965902	273
0	2623	415.834786322815	274
0	2623	415.834786322815	274
0	2623	415.834786322815	274
0	2637	417.122991503831	275
0	2637	417.122991503831	275
0	2637	417.122991503831	275
0	2639	418.774163718252	276
0	2639	418.774163718252	276
0	2639	418.774163718252	276
0	2641	420.622115887153	277
0	2641	420.622115887153	277
0	2641	420.622115887153	277
0	2643	421.830993414774	278
0	2643	421.830993414774	278
0	2643	421.830993414774	278
0	2645	423.620634465396	279
0	2645	423.620634465396	279
0	2645	423.620634465396	279
0	2659	424.848022750264	280
0	2659	424.848022750264	280
0	2659	424.848022750264	280
0	2673	426.28336445234	281
0	2673	426.28336445234	281
0	2673	426.28336445234	281
0	2681	427.931162258761	282
0	2681	427.931162258761	282
0	2681	427.931162258761	282
0	2695	429.597711639863	283
0	2695	429.597711639863	283
0	2695	429.597711639863	283
0	2709	430.865494019038	284
0	2709	430.865494019038	284
0	2709	430.865494019038	284
0	2711	432.860700940865	285
0	2711	432.860700940865	285
0	2711	432.860700940865	285
0	2725	434.418602229713	286
0	2725	434.418602229713	286
0	2725	434.418602229713	286
0	2727	435.731978273171	287
0	2727	435.731978273171	287
0	2727	435.731978273171	287
0	2741	437.323399352062	288
0	2741	437.323399352062	288
0	2741	437.323399352062	288
0	2743	439.30962099057	289
0	2743	439.30962099057	289
0	2743	439.30962099057	289
0	2757	441.219953202096	290
0	2757	441.219953202096	290
0	2757	441.219953202096	290
0	2759	442.764141423314	291
0	2759	442.764141423314	291
0	2759	442.764141423314	291
0	2761	444.190379949206	292
0	2761	444.190379949206	292
0	2761	444.190379949206	292
0	2763	446.162179879065	293
0	2763	446.162179879065	293
0	2763	446.162179879065	293
0	2777	447.710522119341	294
0	2777	447.710522119341	294
0	2777	447.710522119341	294
0	2779	449.002387208784	295
0	2779	449.002387208784	295
0	2779	449.002387208784	295
0	2793	450.243837546477	296
0	2793	450.243837546477	296
0	2793	450.243837546477	296
0	2807	452.086990781747	297
0	2807	452.086990781747	297
0	2807	452.086990781747	297
0	2812	453.592810590439	298
0	2812	453.592810590439	298
0	2812	453.592810590439	298
0	2817	454.850191724174	299
0	2817	454.850191724174	299
0	2817	454.850191724174	299
0	2831	456.164385646502	300
0	2831	456.164385646502	300
0	2831	456.164385646502	300
0	2845	457.459866203521	301
0	2845	457.459866203521	301
0	2845	457.459866203521	301
0	2859	458.723258895254	302
0	2859	458.723258895254	302
0	2859	458.723258895254	302
0	2873	460.083932718881	303
0	2873	460.083932718881	303
0	2873	460.083932718881	303
0	2875	462.009869661103	304
0	2875	462.009869661103	304
0	2875	462.009869661103	304
0	2889	463.074004099858	305
0	2889	463.074004099858	305
0	2889	463.074004099858	305
0	2903	464.336821813989	306
0	2903	464.336821813989	306
0	2903	464.336821813989	306
0	2917	465.982670058418	307
0	2917	465.982670058418	307
0	2917	465.982670058418	307
0	2931	466.992051280025	308
0	2931	466.992051280025	308
0	2931	466.992051280025	308
0	2945	468.067626205427	309
0	2945	468.067626205427	309
0	2945	468.067626205427	309
0	2959	469.074276586916	310
0	2959	469.074276586916	310
0	2959	469.074276586916	310
0	2964	470.330683347225	311
0	2964	470.330683347225	311
0	2964	470.330683347225	311
0	2969	471.627205549894	312
0	2969	471.627205549894	312
0	2969	471.627205549894	312
0	2983	472.813595227121	313
0	2983	472.813595227121	313
0	2983	472.813595227121	313
0	2985	473.904053553628	314
0	2985	473.904053553628	314
0	2985	473.904053553628	314
0	2999	475.151188414233	315
0	2999	475.151188414233	315
0	2999	475.151188414233	315
0	3010	476.259601557549	316
0	3010	476.259601557549	316
0	3010	476.259601557549	316
0	3012	478.189390042718	317
0	3012	478.189390042718	317
0	3012	478.189390042718	317
0	3014	479.890025173235	318
0	3014	479.890025173235	318
0	3014	479.890025173235	318
0	3019	481.498636656595	319
0	3019	481.498636656595	319
0	3019	481.498636656595	319
0	3030	482.894564480675	320
0	3030	482.894564480675	320
0	3030	482.894564480675	320
0	3044	484.352090284848	321
0	3044	484.352090284848	321
0	3044	484.352090284848	321
0	3058	486.204717880967	322
0	3058	486.204717880967	322
0	3058	486.204717880967	322
0	3060	487.440238867574	323
0	3060	487.440238867574	323
0	3060	487.440238867574	323
0	3074	488.62096456733	324
0	3074	488.62096456733	324
0	3074	488.62096456733	324
0	3088	490.279766904343	325
0	3088	490.279766904343	325
0	3088	490.279766904343	325
0	3102	492.049003863162	326
0	3102	492.049003863162	326
0	3102	492.049003863162	326
0	3116	493.476310174833	327
0	3116	493.476310174833	327
0	3116	493.476310174833	327
0	3130	495.369337727935	328
0	3130	495.369337727935	328
0	3130	495.369337727935	328
0	3135	497.09732094143	329
0	3135	497.09732094143	329
0	3135	497.09732094143	329
0	3140	498.115418711365	330
0	3140	498.115418711365	330
0	3140	498.115418711365	330
0	3151	499.471332375114	331
0	3151	499.471332375114	331
0	3151	499.471332375114	331
0	3153	500.892583758026	332
0	3153	500.892583758026	332
0	3153	500.892583758026	332
0	3167	502.132767423909	333
0	3167	502.132767423909	333
0	3167	502.132767423909	333
0	3181	503.678858902227	334
0	3181	503.678858902227	334
0	3181	503.678858902227	334
0	3183	504.851744961148	335
0	3183	504.851744961148	335
0	3183	504.851744961148	335
0	3185	505.901334254691	336
0	3185	505.901334254691	336
0	3185	505.901334254691	336
0	3199	507.462483199235	337
0	3199	507.462483199235	337
0	3199	507.462483199235	337
0	3213	508.479553874271	338
0	3213	508.479553874271	338
0	3213	508.479553874271	338
0	3227	509.811403820213	339
0	3227	509.811403820213	339
0	3227	509.811403820213	339
0	3232	511.528772529602	340
0	3232	511.528772529602	340
0	3232	511.528772529602	340
0	3246	512.909910619879	341
0	3246	512.909910619879	341
0	3246	512.909910619879	341
0	3260	514.796999386201	342
0	3260	514.796999386201	342
0	3260	514.796999386201	342
0	3274	516.000345127346	343
0	3274	516.000345127346	343
0	3274	516.000345127346	343
0	3276	517.173034382906	344
0	3276	517.173034382906	344
0	3276	517.173034382906	344
0	3281	518.288136684025	345
0	3281	518.288136684025	345
0	3281	518.288136684025	345
0	3292	519.660347355685	346
0	3292	519.660347355685	346
0	3292	519.660347355685	346
0	3294	521.413364988441	347
0	3294	521.413364988441	347
0	3294	521.413364988441	347
0	3308	522.465154152518	348
0	3308	522.465154152518	348
0	3308	522.465154152518	348
0	3322	523.610815490052	349
0	3322	523.610815490052	349
0	3322	523.610815490052	349
0	3336	525.350175875161	350
0	3336	525.350175875161	350
0	3336	525.350175875161	350
0	3350	527.263883578047	351
0	3350	527.263883578047	351
0	3350	527.263883578047	351
0	3352	528.310960434066	352
0	3352	528.310960434066	352
0	3352	528.310960434066	352
0	3354	530.215750542624	353
0	3354	530.215750542624	353
0	3354	530.215750542624	353
0	3368	531.540238619238	354
0	3368	531.540238619238	354
0	3368	531.540238619238	354