version 3
run General-0-20231011-15:53:16-10640
attr configname General
attr datetime 20231011-15:53:16
attr datetimef 20231011-155316
attr experiment General
attr inifile omnetpp.ini
attr iterationvars ""
attr iterationvarsd ""
attr iterationvarsf ""
attr measurement ""
attr network Reliability
attr processid 10640
attr repetition 0
attr replication #0
attr resultdir results
attr runnumber 0
attr seedset 0
config network Reliability
config Reliability.node[*].transmissionTime "uniform(1s, 2s)"
config Reliability.node[*].delayTime "uniform(0.01s, 0.2s)"
config Reliability.node[*].lossProbability 0.2
config record-eventlog true
config sim-time-limit 240s
config repeat 5

vector 0 Reliability.node[0] txVector ETV
vector 1 Reliability.node[0] rxVector ETV
vector 2 Reliability.node[1] rxVector ETV
vector 3 Reliability.node[1] txVector ETV
vector 4 Reliability.node[2] rxVector ETV
vector 5 Reliability.node[2] txVector ETV
vector 6 Reliability.node[3] rxVector ETV
vector 7 Reliability.node[3] txVector ETV
vector 8 Reliability.node[4] rxVector ETV
vector 9 Reliability.node[4] txVector ETV
vector 10 Reliability.node[5] rxVector ETV
0	0	0	1
0	1	0.114274565438	2
0	1	0.114274565438	3
0	5	0.951879888213	3
0	5	0.951879888213	4
0	10	1.958540309528	5
0	10	1.958540309528	6
0	13	2.22453618273	7
0	14	3.794619078357	8
0	16	3.872708059287	9
0	16	3.872708059287	10
0	20	5.01305883671	11
0	20	5.01305883671	12
0	21	5.162860615719	13
0	21	5.162860615719	14
0	22	6.281135039478	15
0	22	6.281135039478	16
0	23	6.533536317198	17
0	24	7.863154830718	18
0	24	7.863154830718	19
0	26	8.070909545429	20
0	26	8.070909545429	21
0	29	8.431825443888	21
0	29	8.431825443888	22
0	30	9.335465156844	23
0	31	9.385003158897	24
0	31	9.385003158897	25
0	32	9.567043617153	26
0	32	9.567043617153	27
0	35	10.659606160967	28
0	35	10.659606160967	29
0	36	10.953532595206	30
0	36	10.953532595206	31
0	37	10.99709888136	32
0	37	10.99709888136	33
0	38	11.719831627466	34
0	38	11.719831627466	35
0	39	12.207481443025	36
0	39	12.207481443025	37
0	40	12.606672627404	38
0	40	12.606672627404	39
0	42	13.470517766334	40
0	43	13.571192216435	41
0	43	13.571192216435	42
0	44	13.645098052937	43
0	44	13.645098052937	44
0	45	14.732501727603	45
0	45	14.732501727603	46
0	46	15.123308085276	47
0	46	15.123308085276	48
0	47	15.226948385145	49
0	49	16.198812500415	50
0	49	16.198812500415	51
0	51	16.564956002654	52
0	51	16.564956002654	53
0	52	16.746818191277	54
0	52	16.746818191277	55
0	56	17.51601424518	56
0	56	17.51601424518	57
0	57	18.514527054056	58
0	57	18.514527054056	59
0	58	18.567811422188	60
0	58	18.567811422188	61
0	59	18.612112646298	62
0	62	20.216958164311	63
0	62	20.216958164311	64
0	64	20.39272052261	65
0	64	20.39272052261	66
0	66	20.459091214266	66
0	66	20.459091214266	67
0	67	20.54457251299	68
0	67	20.54457251299	69
0	69	21.085898743419	69
0	69	21.085898743419	70
0	72	21.697851700549	71
0	72	21.697851700549	72
0	73	21.809962004095	73
0	73	21.809962004095	74
0	74	22.024280079909	75
0	74	22.024280079909	76
0	77	22.273196415761	77
0	77	22.273196415761	78
0	78	22.661845238589	79
0	79	22.829649562555	80
0	79	22.829649562555	81
0	80	23.207471443376	82
0	80	23.207471443376	83
0	81	23.277891897847	84
0	81	23.277891897847	85
0	83	23.651348126258	86
0	83	23.651348126258	87
0	84	24.339661777893	88
0	84	24.339661777893	89
0	85	24.533386843352	90
0	85	24.533386843352	91
0	87	24.874429756913	92
0	87	24.874429756913	93
0	88	25.033998589282	94
0	88	25.033998589282	95
0	89	25.169659988292	96
0	89	25.169659988292	97
0	91	25.548222214467	97
0	91	25.548222214467	98
0	94	26.019717350777	99
0	94	26.019717350777	100
0	95	26.286249898744	101
0	95	26.286249898744	102
0	96	26.379795509464	103
0	96	26.379795509464	104
0	97	26.482878320421	105
0	97	26.482878320421	106
0	98	26.91510179012	107
0	98	26.91510179012	108
0	99	27.038910551404	109
0	100	27.207890628622	110
0	103	27.669873119405	111
0	103	27.669873119405	112
0	104	28.002324432272	113
0	104	28.002324432272	114
0	105	28.050575858698	115
0	105	28.050575858698	116
0	106	28.232048156475	117
0	107	28.337192879233	118
0	107	28.337192879233	119
0	108	28.777855540178	120
0	108	28.777855540178	121
0	109	29.223587114967	122
0	109	29.223587114967	123
0	110	29.321976393767	124
0	110	29.321976393767	125
0	111	29.41813773035	126
0	111	29.41813773035	127
0	113	29.597533807799	128
0	113	29.597533807799	129
0	114	29.667913075806	130
0	116	30.323156199788	131
0	116	30.323156199788	132
0	117	30.481744125736	133
0	117	30.481744125736	134
0	118	30.635093192279	135
0	118	30.635093192279	136
0	119	31.036217692148	137
0	119	31.036217692148	138
0	120	31.176228526085	139
0	120	31.176228526085	140
0	121	31.259277860186	141
0	122	31.621716708894	142
0	122	31.621716708894	143
0	123	31.704260182509	144
0	123	31.704260182509	145
0	124	32.130475160104	146
0	124	32.130475160104	147
0	125	32.409508444907	148
0	125	32.409508444907	149
0	127	32.638344678347	150
0	127	32.638344678347	151
0	128	32.715974264022	152
0	129	32.898284131232	153
0	129	32.898284131232	154
0	130	33.125660186185	155
0	130	33.125660186185	156
0	132	33.581138122434	157
0	134	33.817834946345	158
0	134	33.817834946345	159
0	135	33.886960856792	160
0	135	33.886960856792	161
0	136	34.074598680853	162
0	136	34.074598680853	163
0	137	34.12220881394	164
0	137	34.12220881394	165
0	138	34.868205005088	166
0	138	34.868205005088	167
0	139	35.069779937173	168
0	139	35.069779937173	169
0	140	35.124853671704	170
0	140	35.124853671704	171
0	142	35.341861214859	172
0	142	35.341861214859	173
0	143	35.364782370467	174
0	143	35.364782370467	175
0	144	35.657841611224	176
0	144	35.657841611224	177
0	145	36.337244173687	178
0	146	36.381724932714	179
0	147	36.619049252029	180
0	147	36.619049252029	181
0	148	36.912198093989	182
0	148	36.912198093989	183
0	149	37.081412011429	184
0	149	37.081412011429	185
0	152	37.335019055361	186
0	152	37.335019055361	187
0	153	37.395273336152	188
0	153	37.395273336152	189
0	156	37.797349164284	190
0	157	37.816141561622	191
0	157	37.816141561622	192
0	158	38.289949931241	193
0	158	38.289949931241	194
0	159	38.500053810672	195
0	159	38.500053810672	196
0	161	38.616342710399	196
0	161	38.616342710399	197
0	162	38.623910788351	198
0	162	38.623910788351	199
0	164	38.818000169027	200
0	164	38.818000169027	201
0	165	39.012100631677	202
0	165	39.012100631677	203
0	166	39.291944626429	204
0	166	39.291944626429	205
0	167	39.673413822464	206
0	167	39.673413822464	207
0	168	39.697726965666	208
0	168	39.697726965666	209
0	169	39.824736783299	210
0	170	39.928202930906	211
0	170	39.928202930906	212
0	171	40.301408786581	213
0	171	40.301408786581	214
0	172	40.421957618694	215
0	172	40.421957618694	216
0	176	40.886725797355	217
0	176	40.886725797355	218
0	178	40.959471226277	219
0	180	41.16947854149	220
0	180	41.16947854149	221
0	181	41.172242230912	222
0	181	41.172242230912	223
0	183	41.352888396078	224
0	184	41.536320604868	225
0	185	41.699586327092	226
0	185	41.699586327092	227
0	186	41.947673221606	228
0	186	41.947673221606	229
0	188	42.163619549516	230
0	188	42.163619549516	231
0	191	42.377107992479	232
0	191	42.377107992479	233
0	192	42.676330906179	234
0	192	42.676330906179	235
0	193	42.730039292851	236
0	194	42.734899849182	237
0	196	42.78891770462	237
0	196	42.78891770462	238
0	198	42.840944680686	239
0	199	42.891933339899	240
0	199	42.891933339899	241
0	200	43.247041984265	242
0	200	43.247041984265	243
0	202	43.669255523187	244
0	202	43.669255523187	245
0	203	43.696336846122	246
0	203	43.696336846122	247
0	205	43.793077585425	248
0	205	43.793077585425	249
0	209	44.224778625444	249
0	209	44.224778625444	250
0	210	44.290549086424	251
0	210	44.290549086424	252
0	211	44.353338146184	253
0	211	44.353338146184	254
0	212	44.353594212866	255
0	212	44.353594212866	256
0	214	44.773247138499	257
0	214	44.773247138499	258
0	215	44.853517446471	259
0	215	44.853517446471	260
0	216	44.869428475173	261
0	216	44.869428475173	262
0	217	45.086097869461	263
0	217	45.086097869461	264
0	218	45.294597191986	265
0	218	45.294597191986	266
0	219	45.411897998558	267
0	219	45.411897998558	268
0	220	45.618574344962	269
0	221	45.703148931992	270
0	221	45.703148931992	271
0	222	45.721922749255	272
0	222	45.721922749255	273
0	224	45.781818039788	274
0	224	45.781818039788	275
0	225	45.997564162495	276
0	226	46.25963793396	277
0	226	46.25963793396	278
0	229	46.795766437965	279
0	229	46.795766437965	280
0	230	46.811396915488	281
0	230	46.811396915488	282
0	231	46.842347965361	283
0	231	46.842347965361	284
0	232	46.874970643453	285
0	232	46.874970643453	286
0	233	46.920405219252	287
0	233	46.920405219252	288
0	234	46.935383073549	289
0	234	46.935383073549	290
0	235	47.04723305844	291
0	235	47.04723305844	292
0	236	47.0635771761	292
0	236	47.0635771761	293
0	237	47.068644528294	294
0	237	47.068644528294	295
0	240	47.406584575577	296
0	240	47.406584575577	297
0	242	47.531029838737	298
0	242	47.531029838737	299
0	243	47.938897579694	300
0	244	48.006453439265	301
0	245	48.197501221468	302
0	245	48.197501221468	303
0	246	48.352163376769	304
0	247	48.396882423143	305
0	247	48.396882423143	306
0	248	48.505592495464	307
0	248	48.505592495464	308
0	249	48.547900955964	309
0	250	48.571825674337	310
0	250	48.571825674337	311
0	251	48.613179181274	312
0	251	48.613179181274	313
0	252	48.671948086958	314
0	252	48.671948086958	315
0	254	48.904842978245	316
0	254	48.904842978245	317
0	258	49.253802488169	318
0	259	49.279275336207	319
0	259	49.279275336207	320
0	260	49.330966432142	321
0	261	49.441494720466	322
0	261	49.441494720466	323
0	262	49.526497216448	324
0	262	49.526497216448	325
0	263	49.878635774667	326
0	263	49.878635774667	327
0	265	49.996411112165	328
0	265	49.996411112165	329
0	266	50.017399261313	330
0	266	50.017399261313	331
0	267	50.027746659275	332
0	267	50.027746659275	333
0	268	50.064710057242	334
0	268	50.064710057242	335
0	269	50.131355347594	336
0	269	50.131355347594	337
0	271	50.317518328106	338
0	271	50.317518328106	339
0	272	50.383214825841	340
0	272	50.383214825841	341
0	274	50.524466465171	342
0	275	50.787877853989	343
0	275	50.787877853989	344
0	277	50.823081289788	345
0	279	50.886794366016	345
0	279	50.886794366016	346
0	280	50.972095229498	347
0	280	50.972095229498	348
0	281	51.044468248103	349
0	281	51.044468248103	350
0	282	51.074476489233	351
0	282	51.074476489233	352
0	283	51.250664852578	353
0	283	51.250664852578	354
0	284	51.267766932994	355
0	284	51.267766932994	356
0	286	51.324131509783	357
0	286	51.324131509783	358
0	292	51.872878923576	359
0	292	51.872878923576	360
0	293	51.875329627678	361
0	294	52.077772874458	362
0	294	52.077772874458	363
0	295	52.090521950524	364
0	297	52.194247837545	365
0	297	52.194247837545	366
0	298	52.310826617832	367
0	299	52.335089300603	368
0	299	52.335089300603	369
0	300	52.433310176655	370
0	300	52.433310176655	371
0	301	52.451979729251	372
0	302	52.60737174239	373
0	304	52.699791566537	374
0	304	52.699791566537	375
0	305	52.799616114972	376
0	305	52.799616114972	377
0	307	52.860406047227	378
0	307	52.860406047227	379
0	309	53.108073759847	380
0	309	53.108073759847	381
0	310	53.199579810287	382
0	311	53.556250212558	383
0	311	53.556250212558	384
0	312	53.612892483145	385
0	313	53.828206310651	386
0	313	53.828206310651	387
0	314	53.844079811725	388
0	314	53.844079811725	389
0	315	53.855417494503	390
0	315	53.855417494503	391
0	316	53.917285845455	392
0	316	53.917285845455	393
0	317	53.944442975403	394
0	317	53.944442975403	395
0	319	54.023360470804	396
0	319	54.023360470804	397
0	320	54.098396483129	398
0	320	54.098396483129	399
0	321	54.204399228738	400
0	322	54.476176162506	401
0	322	54.476176162506	402
0	323	54.512333103019	403
0	323	54.512333103019	404
0	326	54.698357063984	404
0	326	54.698357063984	405
0	327	54.789961121082	406
0	327	54.789961121082	407
0	328	54.844648715651	408
0	328	54.844648715651	409
0	329	54.854311101388	410
0	329	54.854311101388	411
0	330	55.20893555544	412
0	330	55.20893555544	413
0	331	55.47197365675	414
0	331	55.47197365675	415
0	332	55.495929981368	416
0	332	55.495929981368	417
0	333	55.509938925871	418
0	333	55.509938925871	419
0	335	55.70935760958	420
0	335	55.70935760958	421
0	336	55.767002422198	422
0	336	55.767002422198	423
0	337	55.769566586503	424
0	337	55.769566586503	425
0	338	55.824695525947	426
0	338	55.824695525947	427
0	339	55.852017386612	428
0	339	55.852017386612	429
0	340	55.895867279535	430
0	340	55.895867279535	431
0	341	55.939902751879	432
0	341	55.939902751879	433
0	342	55.943081886917	434
0	342	55.943081886917	435
0	345	56.544079366855	436
0	345	56.544079366855	437
0	346	56.628744981503	438
0	346	56.628744981503	439
0	347	56.736171398156	440
0	349	56.88423510887	441
0	349	56.88423510887	442
0	350	57.05353509917	443
0	350	57.05353509917	444
0	351	57.0714708267	445
0	351	57.0714708267	446
0	352	57.121437150316	447
0	352	57.121437150316	448
0	353	57.125662569792	449
0	353	57.125662569792	450
0	354	57.213291219043	451
0	354	57.213291219043	452
0	355	57.288685411154	453
0	355	57.288685411154	454
0	356	57.327084982325	455
0	356	57.327084982325	456
0	357	57.353693870901	457
0	357	57.353693870901	458
0	358	57.614949146535	459
0	358	57.614949146535	460
0	359	57.642656948361	461
0	359	57.642656948361	462
0	361	57.763156685084	463
0	361	57.763156685084	464
0	362	58.125969545479	465
0	362	58.125969545479	466
0	363	58.183687267203	467
0	364	58.267043167393	468
0	364	58.267043167393	469
0	365	58.269915233861	470
0	365	58.269915233861	471
0	366	58.300652000373	472
0	366	58.300652000373	473
0	368	58.560338180917	474
0	368	58.560338180917	475
0	369	58.60210733123	476
0	369	58.60210733123	477
0	370	58.618355723399	478
0	370	58.618355723399	479
0	372	58.793203619382	480
0	373	59.015691811861	481
0	373	59.015691811861	482
0	374	59.022423726411	483
0	374	59.022423726411	484
0	376	59.092699392037	485
0	376	59.092699392037	486
0	377	59.232377557859	487
0	378	59.29716005784	488
0	378	59.29716005784	489
0	379	59.323557988059	490
0	379	59.323557988059	491
0	380	59.374543119251	492
0	380	59.374543119251	493
0	382	59.596978820761	494
0	383	59.811280903192	495
0	383	59.811280903192	496
0	384	59.988288093387	497
0	384	59.988288093387	498
0	385	60.030307829052	499
0	385	60.030307829052	500
0	386	60.075903266276	501
0	386	60.075903266276	502
0	387	60.270866579082	503
0	387	60.270866579082	504
0	388	60.279221731311	505
0	388	60.279221731311	506
0	389	60.294598201824	507
0	389	60.294598201824	508
0	390	60.321473256243	509
0	390	60.321473256243	510
0	391	60.45385090894	511
0	391	60.45385090894	512
0	392	60.650748606948	513
0	392	60.650748606948	514
0	393	60.653611062822	515
0	393	60.653611062822	516
0	395	60.677815092974	517
0	396	60.735087102356	518
0	396	60.735087102356	519
0	400	61.174119067512	520
0	400	61.174119067512	521
0	401	61.229729828907	522
0	401	61.229729828907	523
0	402	61.257391800077	524
0	403	61.296093406927	525
0	403	61.296093406927	526
0	405	61.350354450773	527
0	406	61.482950917249	528
0	407	61.676295499856	529
0	407	61.676295499856	530
0	408	61.735264295082	531
0	408	61.735264295082	532
0	409	61.747991531333	533
0	410	61.831280448032	534
0	410	61.831280448032	535
0	411	61.937149117729	536
0	411	61.937149117729	537
0	412	62.10468481312	538
0	413	62.138821921558	539
0	413	62.138821921558	540
0	414	62.145388661961	541
0	414	62.145388661961	542
0	417	62.456783863268	543
0	417	62.456783863268	544
0	418	62.553475142357	545
0	419	62.583212663492	546
0	419	62.583212663492	547
0	420	62.644752716675	548
0	420	62.644752716675	549
0	421	62.771110622462	550
0	421	62.771110622462	551
0	422	62.799438836788	552
0	422	62.799438836788	553
0	423	63.180697863593	554
0	423	63.180697863593	555
0	424	63.250554967611	556
0	424	63.250554967611	557
0	425	63.277674862673	558
0	425	63.277674862673	559
0	426	63.328098439323	560
0	426	63.328098439323	561
0	429	63.506694338827	562
0	429	63.506694338827	563
0	430	63.518036392313	564
0	430	63.518036392313	565
0	431	63.579085671357	566
0	431	63.579085671357	567
0	432	63.628438198779	568
0	432	63.628438198779	569
0	433	63.641618528239	570
0	433	63.641618528239	571
0	434	63.83230465118	572
0	434	63.83230465118	573
0	435	63.974395965477	574
0	435	63.974395965477	575
0	436	64.028143126884	576
0	437	64.120004158504	577
0	437	64.120004158504	578
0	438	64.300050550623	579
0	438	64.300050550623	580
0	439	64.323096584135	581
0	439	64.323096584135	582
0	441	64.542886921109	583
0	441	64.542886921109	584
0	442	64.802036371576	585
0	442	64.802036371576	586
0	443	64.815945626779	587
0	443	64.815945626779	588
0	444	64.89963330206	589
0	444	64.89963330206	590
0	446	64.991964505697	591
0	446	64.991964505697	592
0	447	64.996365778687	593
0	447	64.996365778687	594
0	450	65.20365220119	594
0	450	65.20365220119	595
0	451	65.233699194923	596
0	452	65.257201788738	597
0	453	65.328902025027	598
0	453	65.328902025027	599
0	455	65.46973848158	600
0	455	65.46973848158	601
0	456	65.685162902943	602
0	456	65.685162902943	603
0	457	65.702817307569	604
0	457	65.702817307569	605
0	458	65.711031055581	606
0	458	65.711031055581	607
0	459	65.802798347112	608
0	459	65.802798347112	609
0	461	66.013653228935	610
0	462	66.214927978718	611
0	462	66.214927978718	612
0	463	66.322374571885	613
0	463	66.322374571885	614
0	465	66.428647261652	615
0	465	66.428647261652	616
0	467	66.510093351004	616
0	467	66.510093351004	617
0	469	66.558817106368	618
0	470	66.597881783904	619
0	471	66.636930936684	620
0	471	66.636930936684	621
0	472	66.772878597334	622
0	472	66.772878597334	623
0	473	66.77826203269	624
0	474	66.811729611626	625
0	475	66.840605974687	626
0	475	66.840605974687	627
0	476	67.065498089784	628
0	476	67.065498089784	629
0	477	67.07430009732	630
0	478	67.3615394449	631
0	478	67.3615394449	632
0	479	67.367793008723	633
0	480	67.467811751895	634
0	480	67.467811751895	635
0	481	67.491399974634	636
0	481	67.491399974634	637
0	482	67.511430133078	638
0	482	67.511430133078	639
0	483	67.597368077745	640
0	483	67.597368077745	641
0	484	67.715197350537	642
0	484	67.715197350537	643
0	486	67.901837312457	644
0	486	67.901837312457	645
0	488	67.967152109013	646
0	488	67.967152109013	647
0	489	68.095189945974	648
0	489	68.095189945974	649
0	490	68.156447733782	650
0	490	68.156447733782	651
0	491	68.172690739233	652
0	492	68.240273346916	653
0	492	68.240273346916	654
0	495	68.415942024508	655
0	495	68.415942024508	656
0	496	68.449645516258	657
0	496	68.449645516258	658
0	497	68.464659235806	659
0	497	68.464659235806	660
0	498	68.506060222648	661
0	498	68.506060222648	662
0	499	68.621907243682	663
0	499	68.621907243682	664
0	500	68.815482669349	665
0	500	68.815482669349	666
0	501	68.99315120726	667
0	502	69.023146732957	668
0	503	69.036240340616	669
0	503	69.036240340616	670
0	504	69.121232908236	671
0	504	69.121232908236	672
0	505	69.185637974443	673
0	506	69.373171294944	674
0	506	69.373171294944	675
0	507	69.432697438941	676
0	507	69.432697438941	677
0	508	69.586592225376	678
0	508	69.586592225376	679
0	509	69.707607593929	680
0	509	69.707607593929	681
0	510	69.777308899878	682
0	510	69.777308899878	683
0	512	69.896482293671	684
0	512	69.896482293671	685
0	513	69.915496731715	686
0	513	69.915496731715	687
0	514	69.926294359022	688
0	514	69.926294359022	689
0	515	70.089296193342	690
0	515	70.089296193342	691
0	516	70.098074062395	692
0	516	70.098074062395	693
0	517	70.198580705119	694
0	517	70.198580705119	695
0	518	70.258190907809	696
0	518	70.258190907809	697
0	519	70.258898273516	698
0	519	70.258898273516	699
0	520	70.26428217634	700
0	520	70.26428217634	701
0	521	70.283353175752	702
0	521	70.283353175752	703
0	522	70.292422377998	704
0	522	70.292422377998	705
0	527	70.422311852978	705
0	527	70.422311852978	706
0	528	70.586066319913	707
0	528	70.586066319913	708
0	529	70.74532037371	709
0	529	70.74532037371	710
0	532	70.847719730545	711
0	532	70.847719730545	712
0	533	70.925434846142	713
0	533	70.925434846142	714
0	534	71.01111661487	715
0	534	71.01111661487	716
0	535	71.235841685749	717
0	535	71.235841685749	718
0	536	71.258123190978	719
0	536	71.258123190978	720
0	537	71.282014165321	721
0	537	71.282014165321	722
0	538	71.29951907929	723
0	538	71.29951907929	724
0	540	71.634580061344	725
0	540	71.634580061344	726
0	541	71.654479142768	727
0	541	71.654479142768	728
0	542	71.760252473246	729
0	542	71.760252473246	730
0	543	71.797407649707	731
0	543	71.797407649707	732
0	544	71.804666851989	733
0	544	71.804666851989	734
0	545	71.809977421477	735
0	545	71.809977421477	736
0	546	71.81680218366	737
0	546	71.81680218366	738
0	547	71.857356510258	739
0	548	72.105011084422	740
0	548	72.105011084422	741
0	549	72.194659623623	742
0	549	72.194659623623	743
0	550	72.252955919161	744
0	550	72.252955919161	745
0	551	72.297353597302	746
0	551	72.297353597302	747
0	552	72.304208353687	748
0	552	72.304208353687	749
0	553	72.5540751939	750
0	554	72.569903749475	751
0	554	72.569903749475	752
0	555	72.719561622502	753
0	556	72.726601450719	754
0	556	72.726601450719	755
0	557	72.87136271365	756
0	557	72.87136271365	757
0	558	72.901801276624	758
0	558	72.901801276624	759
0	559	72.970714673043	760
0	560	73.011321328386	761
0	560	73.011321328386	762
0	561	73.26989643232	763
0	563	73.333732317973	764
0	563	73.333732317973	765
0	564	73.336276156845	766
0	565	73.351314342714	767
0	565	73.351314342714	768
0	566	73.435941619401	769
0	566	73.435941619401	770
0	567	73.531407529894	771
0	567	73.531407529894	772
0	568	73.553779843758	773
0	568	73.553779843758	774
0	569	73.640479340057	775
0	569	73.640479340057	776
0	570	73.645262819916	777
0	570	73.645262819916	778
0	572	74.115386902532	779
0	572	74.115386902532	780
0	573	74.117919652043	781
0	573	74.117919652043	782
0	574	74.144224628597	783
0	574	74.144224628597	784
0	576	74.279632494146	785
0	576	74.279632494146	786
0	577	74.336164569558	787
0	577	74.336164569558	788
0	578	74.343744473782	789
0	579	74.358485396791	790
0	580	74.537680379878	790
0	580	74.537680379878	791
0	581	74.604352237206	792
0	581	74.604352237206	793
0	583	74.661693370697	794
0	583	74.661693370697	795
0	585	74.742980250266	796
0	585	74.742980250266	797
0	586	74.759617250779	798
0	586	74.759617250779	799
0	588	74.837103166988	800
0	588	74.837103166988	801
0	590	74.943882534785	802
0	591	75.009358403535	803
0	591	75.009358403535	804
0	592	75.018302594978	805
0	593	75.141089157502	806
0	593	75.141089157502	807
0	594	75.199291374087	808
0	595	75.240442988403	809
0	595	75.240442988403	810
0	596	75.327257922409	811
0	596	75.327257922409	812
0	597	75.336710540421	813
0	597	75.336710540421	814
0	600	75.422039176643	815
0	600	75.422039176643	816
0	605	75.538022100532	817
0	605	75.538022100532	818
0	606	75.692600477036	819
0	606	75.692600477036	820
0	607	75.745933635923	821
0	607	75.745933635923	822
0	608	75.769146204711	823
0	610	75.820839609747	824
0	610	75.820839609747	825
0	611	75.957691906312	826
0	611	75.957691906312	827
0	612	75.989786821828	828
0	612	75.989786821828	829
0	613	76.436411804255	830
0	613	76.436411804255	831
0	614	76.461019811725	832
0	614	76.461019811725	833
0	615	76.571555813442	834
0	615	76.571555813442	835
0	616	76.572092864967	836
0	616	76.572092864967	837
0	617	76.597440276636	838
0	617	76.597440276636	839
0	618	76.713585965741	840
0	618	76.713585965741	841
0	619	76.724411001924	842
0	619	76.724411001924	843
0	620	76.746436745004	844
0	620	76.746436745004	845
0	621	76.751966258416	846
0	621	76.751966258416	847
0	623	76.867897216947	848
0	623	76.867897216947	849
0	624	76.869606253007	850
0	624	76.869606253007	851
0	625	76.896834849165	852
0	625	76.896834849165	853
0	626	76.965886866043	854
0	626	76.965886866043	855
0	627	77.063946818061	856
0	627	77.063946818061	857
0	628	77.103676461644	858
0	628	77.103676461644	859
0	630	77.159317754282	860
0	630	77.159317754282	861
0	632	77.223737916468	862
0	632	77.223737916468	863
0	633	77.256061639235	864
0	633	77.256061639235	865
0	639	77.690037512422	866
0	639	77.690037512422	867
0	641	77.757610757208	868
0	643	77.952984117615	869
0	643	77.952984117615	870
0	644	78.030128530399	871
0	645	78.103783625254	872
0	645	78.103783625254	873
0	646	78.111705957694	874
0	646	78.111705957694	875
0	647	78.184815588515	876
0	649	78.205453299278	877
0	649	78.205453299278	878
0	650	78.241365311918	879
0	650	78.241365311918	880
0	651	78.332299377437	881
0	651	78.332299377437	882
0	652	78.334576641015	883
0	652	78.334576641015	884
0	653	78.445606638462	885
0	653	78.445606638462	886
0	654	78.466564459057	887
0	655	78.52080776848	888
0	655	78.52080776848	889
0	656	78.721917481186	890
0	656	78.721917481186	891
0	657	78.727163758668	892
0	657	78.727163758668	893
0	658	78.730138431441	894
0	658	78.730138431441	895
0	660	78.901492306699	896
0	660	78.901492306699	897
0	661	78.929627856075	898
0	661	78.929627856075	899
0	662	79.160660887679	900
0	662	79.160660887679	901
0	663	79.188727172854	902
0	664	79.194616940511	903
0	664	79.194616940511	904
0	665	79.1990886524	905
0	665	79.1990886524	906
0	668	79.547795670166	907
0	668	79.547795670166	908
0	669	79.571262991862	909
0	669	79.571262991862	910
0	670	79.676157205204	911
0	670	79.676157205204	912
0	671	79.677978211726	913
0	671	79.677978211726	914
0	672	79.760474723322	915
0	672	79.760474723322	916
0	673	79.815397155722	917
0	673	79.815397155722	918
0	674	79.899243174858	919
0	676	79.989618292677	920
0	676	79.989618292677	921
0	677	80.021209515428	922
0	677	80.021209515428	923
0	678	80.252441482415	924
0	678	80.252441482415	925
0	679	80.346768812992	926
0	679	80.346768812992	927
0	680	80.468401835839	928
0	680	80.468401835839	929
0	681	80.486084880509	930
0	682	80.633288076285	931
0	682	80.633288076285	932
0	684	80.749650296358	933
0	684	80.749650296358	934
0	686	80.922832667619	935
0	686	80.922832667619	936
0	687	80.963195853043	937
0	687	80.963195853043	938
0	688	80.996895532534	939
0	688	80.996895532534	940
0	689	81.008497078843	941
0	689	81.008497078843	942
0	690	81.062564875712	943
0	690	81.062564875712	944
0	691	81.092956200551	945
0	691	81.092956200551	946
0	692	81.181728486036	947
0	693	81.266422061309	948
0	693	81.266422061309	949
0	694	81.340020367449	950
0	694	81.340020367449	951
0	695	81.491356596888	952
0	695	81.491356596888	953
0	696	81.516325224209	954
0	696	81.516325224209	955
0	697	81.516826294858	956
0	697	81.516826294858	957
0	698	81.790735375442	958
0	699	81.802585623662	959
0	699	81.802585623662	960
0	700	81.838360241399	961
0	700	81.838360241399	962
0	701	81.843224332801	963
0	701	81.843224332801	964
0	702	81.875335512014	965
0	705	81.905155946641	965
0	705	81.905155946641	966
0	707	82.07246209303	967
0	707	82.07246209303	968
0	708	82.124489118715	969
0	708	82.124489118715	970
0	709	82.160455325028	971
0	709	82.160455325028	972
0	710	82.2898789095	973
0	711	82.312670635698	974
0	711	82.312670635698	975
0	714	82.484464073622	976
0	714	82.484464073622	977
0	715	82.577557784985	978
0	715	82.577557784985	979
0	716	82.730160572351	980
0	716	82.730160572351	981
0	717	82.822790996943	982
0	717	82.822790996943	983
0	718	82.832381777504	984
0	718	82.832381777504	985
0	719	82.857279609948	986
0	719	82.857279609948	987
0	720	82.898220055813	988
0	720	82.898220055813	989
0	721	82.905669882958	990
0	721	82.905669882958	991
0	722	82.931858912606	992
0	723	82.940900703094	993
0	723	82.940900703094	994
0	724	83.032153064122	995
0	724	83.032153064122	996
0	725	83.120733304952	997
0	725	83.120733304952	998
0	726	83.320539958333	999
0	727	83.390257717606	1000
0	727	83.390257717606	1001
0	728	83.436959529468	1002
0	729	83.533885782602	1003
0	729	83.533885782602	1004
0	731	83.598507850212	1005
0	731	83.598507850212	1006
0	732	83.680536745923	1007
0	732	83.680536745923	1008
0	733	83.698581013034	1009
0	733	83.698581013034	1010
0	734	83.776952358912	1011
0	734	83.776952358912	1012
0	735	83.781232480836	1013
0	735	83.781232480836	1014
0	736	83.803111883254	1015
0	736	83.803111883254	1016
0	738	84.063763558205	1017
0	738	84.063763558205	1018
0	739	84.066468871737	1019
0	739	84.066468871737	1020
0	740	84.093113833399	1021
0	740	84.093113833399	1022
0	741	84.217501653328	1023
0	741	84.217501653328	1024
0	742	84.249429918897	1025
0	742	84.249429918897	1026
0	743	84.279451856691	1027
0	743	84.279451856691	1028
0	745	84.458350820031	1029
0	745	84.458350820031	1030
0	746	84.611662360973	1031
0	748	84.670865147398	1032
0	748	84.670865147398	1033
0	749	84.710135078553	1034
0	749	84.710135078553	1035
0	751	84.738026581548	1036
0	753	84.7850977441	1037
0	753	84.7850977441	1038
0	755	84.840398288702	1039
0	756	84.854210184253	1040
0	756	84.854210184253	1041
0	757	84.863811174654	1042
0	757	84.863811174654	1043
0	758	85.069900043217	1044
0	758	85.069900043217	1045
0	759	85.106622536726	1046
0	760	85.132676048277	1047
0	760	85.132676048277	1048
0	761	85.229682855559	1049
0	761	85.229682855559	1050
0	762	85.380810382017	1051
0	762	85.380810382017	1052
0	764	85.480089529719	1053
0	764	85.480089529719	1054
0	766	85.508776094942	1055
0	766	85.508776094942	1056
0	767	85.539088338885	1057
0	768	85.560393430401	1058
0	768	85.560393430401	1059
0	770	85.631260084424	1060
0	770	85.631260084424	1061
0	775	85.793426061544	1062
0	776	85.841062504237	1063
0	776	85.841062504237	1064
0	777	85.882192177064	1065
0	777	85.882192177064	1066
0	779	86.016402059963	1067
0	779	86.016402059963	1068
0	780	86.049708772697	1069
0	780	86.049708772697	1070
0	781	86.073147593836	1071
0	781	86.073147593836	1072
0	782	86.196627715976	1073
0	782	86.196627715976	1074
0	783	86.220919654495	1075
0	783	86.220919654495	1076
0	784	86.31661042142	1077
0	784	86.31661042142	1078
0	785	86.426005070115	1079
0	785	86.426005070115	1080
0	786	86.50461069547	1081
0	786	86.50461069547	1082
0	787	86.642853285961	1083
0	787	86.642853285961	1084
0	789	86.778728999603	1085
0	790	86.858122990604	1086
0	790	86.858122990604	1087
0	791	86.932055114109	1088
0	791	86.932055114109	1089
0	792	86.960160910636	1090
0	792	86.960160910636	1091
0	793	86.985484905511	1092
0	793	86.985484905511	1093
0	794	87.107770725226	1094
0	794	87.107770725226	1095
0	795	87.111323926394	1096
0	795	87.111323926394	1097
0	796	87.212993333416	1097
0	796	87.212993333416	1098
0	797	87.213267563623	1099
0	797	87.213267563623	1100
0	799	87.286993917799	1101
0	799	87.286993917799	1102
0	801	87.392555537113	1103