version 3
run General-0-20231019-19:47:19-63521
attr configname General
attr datetime 20231019-19:47:19
attr datetimef 20231019-194719
attr experiment General
attr inifile omnetpp.ini
attr iterationvars ""
attr iterationvarsd ""
attr iterationvarsf ""
attr measurement ""
attr network Reliability
attr processid 63521
attr repetition 0
attr replication #0
attr resultdir results
attr runnumber 0
attr seedset 0
config network Reliability
config Reliability.node[*].transmissionTime "uniform(1s, 2s)"
config Reliability.node[*].delayTime "uniform(0.01s, 0.2s)"
config Reliability.node[*].lossProbability 0.3
config record-eventlog true
config sim-time-limit 1000s
config repeat 5

vector 0 Reliability.node[0] txVector ETV
vector 1 Reliability.node[1] txVector ETV
vector 2 Reliability.node[1] rxVector ETV
vector 3 Reliability.node[3] txVector ETV
vector 4 Reliability.node[3] rxVector ETV
vector 5 Reliability.node[0] rxVector ETV
vector 6 Reliability.node[2] txVector ETV
vector 7 Reliability.node[2] rxVector ETV
vector 8 Reliability.node[4] txVector ETV
vector 9 Reliability.node[4] rxVector ETV
vector 10 Reliability.node[5] rxVector ETV
vector 11 Reliability.node[5] e2eVector ETV
0	1	0.114274565438	1
0	1	0.114274565438	1
0	1	0.114274565438	1
0	15	1.82946393041	2
0	15	1.82946393041	2
0	15	1.82946393041	2
0	17	3.166860092041	3
0	17	3.166860092041	3
0	17	3.166860092041	3
0	31	4.187078491161	4
0	31	4.187078491161	4
0	31	4.187078491161	4
0	33	5.660678913892	5
0	33	5.660678913892	5
0	33	5.660678913892	5
0	47	7.434912600397	6
0	47	7.434912600397	6
0	47	7.434912600397	6
0	61	9.088052632595	7
0	61	9.088052632595	7
0	61	9.088052632595	7
0	75	10.554363405407	8
0	75	10.554363405407	8
0	75	10.554363405407	8
0	80	12.063987777178	9
0	80	12.063987777178	9
0	80	12.063987777178	9
0	88	13.346794736647	10
0	88	13.346794736647	10
0	88	13.346794736647	10
0	102	14.91198360229	11
0	102	14.91198360229	11
0	102	14.91198360229	11
0	104	15.932091152837	12
0	104	15.932091152837	12
0	104	15.932091152837	12
0	106	17.301899248577	13
0	106	17.301899248577	13
0	106	17.301899248577	13
0	120	18.979715787881	14
0	120	18.979715787881	14
0	120	18.979715787881	14
0	134	20.746739490499	15
0	134	20.746739490499	15
0	134	20.746739490499	15
0	148	22.048314306728	16
0	148	22.048314306728	16
0	148	22.048314306728	16
0	162	23.189578209614	17
0	162	23.189578209614	17
0	162	23.189578209614	17
0	176	24.313398192014	18
0	176	24.313398192014	18
0	176	24.313398192014	18
0	184	26.257521712763	19
0	184	26.257521712763	19
0	184	26.257521712763	19
0	198	27.481446395471	20
0	198	27.481446395471	20
0	198	27.481446395471	20
0	203	29.445936161169	21
0	203	29.445936161169	21
0	203	29.445936161169	21
0	217	31.390308549703	22
0	217	31.390308549703	22
0	217	31.390308549703	22
0	231	32.868904876132	23
0	231	32.868904876132	23
0	231	32.868904876132	23
0	233	34.497886725078	24
0	233	34.497886725078	24
0	233	34.497886725078	24
0	235	35.809746945585	25
0	235	35.809746945585	25
0	235	35.809746945585	25
0	249	37.607793775928	26
0	249	37.607793775928	26
0	249	37.607793775928	26
0	263	39.254058210953	27
0	263	39.254058210953	27
0	263	39.254058210953	27
0	274	40.609670945984	28
0	274	40.609670945984	28
0	274	40.609670945984	28
0	276	42.286934252671	29
0	276	42.286934252671	29
0	276	42.286934252671	29
0	290	43.303363883943	30
0	290	43.303363883943	30
0	290	43.303363883943	30
0	304	44.795632123789	31
0	304	44.795632123789	31
0	304	44.795632123789	31
0	306	46.435104640275	32
0	306	46.435104640275	32
0	306	46.435104640275	32
0	308	47.845596781773	33
0	308	47.845596781773	33
0	308	47.845596781773	33
0	310	49.667714516706	34
0	310	49.667714516706	34
0	310	49.667714516706	34
0	324	51.06884685818	35
0	324	51.06884685818	35
0	324	51.06884685818	35
0	338	52.122274035661	36
0	338	52.122274035661	36
0	338	52.122274035661	36
0	340	53.378413618615	37
0	340	53.378413618615	37
0	340	53.378413618615	37
0	354	54.433787935486	38
0	354	54.433787935486	38
0	354	54.433787935486	38
0	356	56.115147068936	39
0	356	56.115147068936	39
0	356	56.115147068936	39
0	358	57.488960208444	40
0	358	57.488960208444	40
0	358	57.488960208444	40
0	360	58.498648382098	41
0	360	58.498648382098	41
0	360	58.498648382098	41
0	362	59.869501182184	42
0	362	59.869501182184	42
0	362	59.869501182184	42
0	376	61.648693153009	43
0	376	61.648693153009	43
0	376	61.648693153009	43
0	387	63.33008566506	44
0	387	63.33008566506	44
0	387	63.33008566506	44
0	398	65.130464123867	45
0	398	65.130464123867	45
0	398	65.130464123867	45
0	412	66.926855598649	46
0	412	66.926855598649	46
0	412	66.926855598649	46
0	414	68.876153078236	47
0	414	68.876153078236	47
0	414	68.876153078236	47
0	428	70.300185330052	48
0	428	70.300185330052	48
0	428	70.300185330052	48
0	439	71.392212913444	49
0	439	71.392212913444	49
0	439	71.392212913444	49
0	453	72.645404104449	50
0	453	72.645404104449	50
0	453	72.645404104449	50
0	455	74.447240254682	51
0	455	74.447240254682	51
0	455	74.447240254682	51
0	469	75.688658872925	52
0	469	75.688658872925	52
0	469	75.688658872925	52
0	471	77.427341531104	53
0	471	77.427341531104	53
0	471	77.427341531104	53
0	485	78.775860894545	54
0	485	78.775860894545	54
0	485	78.775860894545	54
0	499	79.889677533721	55
0	499	79.889677533721	55
0	499	79.889677533721	55
0	513	81.523675229009	56
0	513	81.523675229009	56
0	513	81.523675229009	56
0	527	82.623707281267	57
0	527	82.623707281267	57
0	527	82.623707281267	57
0	541	84.129573665634	58
0	541	84.129573665634	58
0	541	84.129573665634	58
0	555	85.516400816692	59
0	555	85.516400816692	59
0	555	85.516400816692	59
0	566	87.046938031288	60
0	566	87.046938031288	60
0	566	87.046938031288	60
0	580	88.336713907616	61
0	580	88.336713907616	61
0	580	88.336713907616	61
0	594	90.127554070977	62
0	594	90.127554070977	62
0	594	90.127554070977	62
0	608	91.749246966866	63
0	608	91.749246966866	63
0	608	91.749246966866	63
0	622	93.635551631757	64
0	622	93.635551631757	64
0	622	93.635551631757	64
0	636	95.070312269804	65
0	636	95.070312269804	65
0	636	95.070312269804	65
0	650	96.677561647099	66
0	650	96.677561647099	66
0	650	96.677561647099	66
0	664	98.080328404045	67
0	664	98.080328404045	67
0	664	98.080328404045	67
0	666	99.322230109319	68
0	666	99.322230109319	68
0	666	99.322230109319	68
0	680	100.582858776048	69
0	680	100.582858776048	69
0	680	100.582858776048	69
0	682	102.267793215651	70
0	682	102.267793215651	70
0	682	102.267793215651	70
0	693	104.166552798197	71
0	693	104.166552798197	71
0	693	104.166552798197	71
0	707	105.623611556206	72
0	707	105.623611556206	72
0	707	105.623611556206	72
0	721	106.998364259096	73
0	721	106.998364259096	73
0	721	106.998364259096	73
0	723	108.60467239267	74
0	723	108.60467239267	74
0	723	108.60467239267	74
0	737	110.270350122431	75
0	737	110.270350122431	75
0	737	110.270350122431	75
0	745	111.643566079277	76
0	745	111.643566079277	76
0	745	111.643566079277	76
0	747	113.157325814085	77
0	747	113.157325814085	77
0	747	113.157325814085	77
0	761	115.013601997241	78
0	761	115.013601997241	78
0	761	115.013601997241	78
0	775	116.363809256421	79
0	775	116.363809256421	79
0	775	116.363809256421	79
0	777	117.641149527	80
0	777	117.641149527	80
0	777	117.641149527	80
0	779	119.49300323271	81
0	779	119.49300323271	81
0	779	119.49300323271	81
0	781	120.652848518992	82
0	781	120.652848518992	82
0	781	120.652848518992	82
0	795	122.238280590929	83
0	795	122.238280590929	83
0	795	122.238280590929	83
0	809	123.50548762393	84
0	809	123.50548762393	84
0	809	123.50548762393	84
0	814	125.400832737869	85
0	814	125.400832737869	85
0	814	125.400832737869	85
0	828	126.617289998874	86
0	828	126.617289998874	86
0	828	126.617289998874	86
0	842	128.399379374532	87
0	842	128.399379374532	87
0	842	128.399379374532	87
0	844	129.882772914905	88
0	844	129.882772914905	88
0	844	129.882772914905	88
0	858	130.890241231842	89
0	858	130.890241231842	89
0	858	130.890241231842	89
0	860	132.00266855357	90
0	860	132.00266855357	90
0	860	132.00266855357	90
0	862	133.324685893327	91
0	862	133.324685893327	91
0	862	133.324685893327	91
0	873	134.727711896252	92
0	873	134.727711896252	92
0	873	134.727711896252	92
0	884	136.442087632211	93
0	884	136.442087632211	93
0	884	136.442087632211	93
0	898	137.734976197433	94
0	898	137.734976197433	94
0	898	137.734976197433	94
0	900	139.607278708209	95
0	900	139.607278708209	95
0	900	139.607278708209	95
0	911	141.301436555412	96
0	911	141.301436555412	96
0	911	141.301436555412	96
0	916	142.407691467161	97
0	916	142.407691467161	97
0	916	142.407691467161	97
0	930	144.281248296451	98
0	930	144.281248296451	98
0	930	144.281248296451	98
0	944	145.802123091256	99
0	944	145.802123091256	99
0	944	145.802123091256	99
0	958	147.300302655974	100
0	958	147.300302655974	100
0	958	147.300302655974	100
0	960	149.025296750085	101
0	960	149.025296750085	101
0	960	149.025296750085	101
0	974	150.925163488674	102
0	974	150.925163488674	102
0	974	150.925163488674	102
0	979	152.029242251839	103
0	979	152.029242251839	103
0	979	152.029242251839	103
0	993	153.802352305807	104
0	993	153.802352305807	104
0	993	153.802352305807	104
0	995	155.150050294192	105
0	995	155.150050294192	105
0	995	155.150050294192	105
0	1009	156.855760334597	106
0	1009	156.855760334597	106
0	1009	156.855760334597	106
0	1023	158.520725033783	107
0	1023	158.520725033783	107
0	1023	158.520725033783	107
0	1037	160.255538811047	108
0	1037	160.255538811047	108
0	1037	160.255538811047	108
0	1051	161.846396359686	109
0	1051	161.846396359686	109
0	1051	161.846396359686	109
0	1065	163.784808384326	110
0	1065	163.784808384326	110
0	1065	163.784808384326	110
0	1067	165.324621765014	111
0	1067	165.324621765014	111
0	1067	165.324621765014	111
0	1081	166.612166266959	112
0	1081	166.612166266959	112
0	1081	166.612166266959	112
0	1095	168.282927924838	113
0	1095	168.282927924838	113
0	1095	168.282927924838	113
0	1097	169.808736883175	114
0	1097	169.808736883175	114
0	1097	169.808736883175	114
0	1111	171.344538803982	115
0	1111	171.344538803982	115
0	1111	171.344538803982	115
0	1125	173.168256478921	116
0	1125	173.168256478921	116
0	1125	173.168256478921	116
0	1133	174.819484042308	117
0	1133	174.819484042308	117
0	1133	174.819484042308	117
0	1147	175.928387784471	118
0	1147	175.928387784471	118
0	1147	175.928387784471	118
0	1161	177.180014540048	119
0	1161	177.180014540048	119
0	1161	177.180014540048	119
0	1163	178.445920170823	120
0	1163	178.445920170823	120
0	1163	178.445920170823	120
0	1177	180.32275973873	121
0	1177	180.32275973873	121
0	1177	180.32275973873	121
0	1191	181.3579198004	122
0	1191	181.3579198004	122
0	1191	181.3579198004	122
0	1193	183.05386666239	123
0	1193	183.05386666239	123
0	1193	183.05386666239	123
0	1195	185.009989821657	124
0	1195	185.009989821657	124
0	1195	185.009989821657	124
0	1206	186.903762576475	125
0	1206	186.903762576475	125
0	1206	186.903762576475	125
0	1208	188.006208858292	126
0	1208	188.006208858292	126
0	1208	188.006208858292	126
0	1210	189.172498427404	127
0	1210	189.172498427404	127
0	1210	189.172498427404	127
0	1212	190.678841347879	128
0	1212	190.678841347879	128
0	1212	190.678841347879	128
0	1226	192.388541886423	129
0	1226	192.388541886423	129
0	1226	192.388541886423	129
0	1231	193.814544275709	130
0	1231	193.814544275709	130
0	1231	193.814544275709	130
0	1245	195.580376755985	131
0	1245	195.580376755985	131
0	1245	195.580376755985	131
0	1247	197.300642613395	132
0	1247	197.300642613395	132
0	1247	197.300642613395	132
0	1261	199.097896540844	133
0	1261	199.097896540844	133
0	1261	199.097896540844	133
0	1275	200.658347128964	134
0	1275	200.658347128964	134
0	1275	200.658347128964	134
0	1289	202.305565099771	135
0	1289	202.305565099771	135
0	1289	202.305565099771	135
0	1294	204.298232091897	136
0	1294	204.298232091897	136
0	1294	204.298232091897	136
0	1299	205.744778825742	137
0	1299	205.744778825742	137
0	1299	205.744778825742	137
0	1301	206.849514936636	138
0	1301	206.849514936636	138
0	1301	206.849514936636	138
0	1315	207.98864822586	139
0	1315	207.98864822586	139
0	1315	207.98864822586	139
0	1320	209.557935145757	140
0	1320	209.557935145757	140
0	1320	209.557935145757	140
0	1334	211.506378252831	141
0	1334	211.506378252831	141
0	1334	211.506378252831	141
0	1348	213.46142492893	142
0	1348	213.46142492893	142
0	1348	213.46142492893	142
0	1362	214.902272426131	143
0	1362	214.902272426131	143
0	1362	214.902272426131	143
0	1376	216.849079597815	144
0	1376	216.849079597815	144
0	1376	216.849079597815	144
0	1390	218.09161084595	145
0	1390	218.09161084595	145
0	1390	218.09161084595	145
0	1401	219.866358460932	146
0	1401	219.866358460932	146
0	1401	219.866358460932	146
0	1415	221.117558574145	147
0	1415	221.117558574145	147
0	1415	221.117558574145	147
0	1417	222.82074759419	148
0	1417	222.82074759419	148
0	1417	222.82074759419	148
0	1425	224.24060524309	149
0	1425	224.24060524309	149
0	1425	224.24060524309	149
0	1439	225.543897165292	150
0	1439	225.543897165292	150
0	1439	225.543897165292	150
0	1453	227.430015176608	151
0	1453	227.430015176608	151
0	1453	227.430015176608	151
0	1467	228.649875952936	152
0	1467	228.649875952936	152
0	1467	228.649875952936	152
0	1481	230.46113485245	153
0	1481	230.46113485245	153
0	1481	230.46113485245	153
0	1495	232.373285802155	154
0	1495	232.373285802155	154
0	1495	232.373285802155	154
0	1500	233.516364225493	155
0	1500	233.516364225493	155
0	1500	233.516364225493	155
0	1502	234.832905352888	156
0	1502	234.832905352888	156
0	1502	234.832905352888	156
0	1504	236.794746612273	157
0	1504	236.794746612273	157
0	1504	236.794746612273	157
0	1518	238.545283262925	158
0	1518	238.545283262925	158
0	1518	238.545283262925	158
0	1532	240.475394032271	159
0	1532	240.475394032271	159
0	1532	240.475394032271	159
0	1543	242.391813044976	160
0	1543	242.391813044976	160
0	1543	242.391813044976	160
0	1557	244.180828369064	161
0	1557	244.180828369064	161
0	1557	244.180828369064	161
0	1571	245.32126788686	162
0	1571	245.32126788686	162
0	1571	245.32126788686	162
0	1585	247.308638340169	163
0	1585	247.308638340169	163
0	1585	247.308638340169	163
0	1587	249.238257084814	164
0	1587	249.238257084814	164
0	1587	249.238257084814	164
0	1601	250.271350790122	165
0	1601	250.271350790122	165
0	1601	250.271350790122	165
0	1615	252.250621025059	166
0	1615	252.250621025059	166
0	1615	252.250621025059	166
0	1617	253.945014913873	167
0	1617	253.945014913873	167
0	1617	253.945014913873	167
0	1631	255.43598129468	168
0	1631	255.43598129468	168
0	1631	255.43598129468	168
0	1645	256.508404155103	169
0	1645	256.508404155103	169
0	1645	256.508404155103	169
0	1659	258.197052472811	170
0	1659	258.197052472811	170
0	1659	258.197052472811	170
0	1661	259.744015729129	171
0	1661	259.744015729129	171
0	1661	259.744015729129	171
0	1663	261.001837424077	172
0	1663	261.001837424077	172
0	1663	261.001837424077	172
0	1677	262.753135404391	173
0	1677	262.753135404391	173
0	1677	262.753135404391	173
0	1679	264.574150605434	174
0	1679	264.574150605434	174
0	1679	264.574150605434	174
0	1681	265.917604413889	175
0	1681	265.917604413889	175
0	1681	265.917604413889	175
0	1695	267.016364301862	176
0	1695	267.016364301862	176
0	1695	267.016364301862	176
0	1709	268.073363150544	177
0	1709	268.073363150544	177
0	1709	268.073363150544	177
0	1723	269.419970960198	178
0	1723	269.419970960198	178
0	1723	269.419970960198	178
0	1737	271.015956667094	179
0	1737	271.015956667094	179
0	1737	271.015956667094	179
0	1751	272.820892237435	180
0	1751	272.820892237435	180
0	1751	272.820892237435	180
0	1765	274.496647444629	181
0	1765	274.496647444629	181
0	1765	274.496647444629	181
0	1776	276.314724672195	182
0	1776	276.314724672195	182
0	1776	276.314724672195	182
0	1778	277.557256692863	183
0	1778	277.557256692863	183
0	1778	277.557256692863	183
0	1789	279.36023206574	184
0	1789	279.36023206574	184
0	1789	279.36023206574	184
0	1800	280.467274661251	185
0	1800	280.467274661251	185
0	1800	280.467274661251	185
0	1814	281.775148756877	186
0	1814	281.775148756877	186
0	1814	281.775148756877	186
0	1816	283.326926531811	187
0	1816	283.326926531811	187
0	1816	283.326926531811	187
0	1818	284.544205507339	188
0	1818	284.544205507339	188
0	1818	284.544205507339	188
0	1820	286.442360327422	189
0	1820	286.442360327422	189
0	1820	286.442360327422	189
0	1822	287.728689873201	190
0	1822	287.728689873201	190
0	1822	287.728689873201	190
0	1824	288.774366957677	191
0	1824	288.774366957677	191
0	1824	288.774366957677	191
0	1826	290.255920317565	192
0	1826	290.255920317565	192
0	1826	290.255920317565	192
0	1840	291.652804496541	193
0	1840	291.652804496541	193
0	1840	291.652804496541	193
0	1854	293.543568844284	194
0	1854	293.543568844284	194
0	1854	293.543568844284	194
0	1856	295.002655326231	195
0	1856	295.002655326231	195
0	1856	295.002655326231	195
0	1861	296.791123714839	196
0	1861	296.791123714839	196
0	1861	296.791123714839	196
0	1863	298.01730476304	197
0	1863	298.01730476304	197
0	1863	298.01730476304	197
0	1865	299.99119809161	198
0	1865	299.99119809161	198
0	1865	299.99119809161	198
0	1879	301.669892733992	199
0	1879	301.669892733992	199
0	1879	301.669892733992	199
0	1893	303.441495542024	200
0	1893	303.441495542024	200
0	1893	303.441495542024	200
0	1907	304.906373939785	201
0	1907	304.906373939785	201
0	1907	304.906373939785	201
0	1921	305.934736871701	202
0	1921	305.934736871701	202
0	1921	305.934736871701	202
0	1935	307.143376391456	203
0	1935	307.143376391456	203
0	1935	307.143376391456	203
0	1946	308.987703403533	204
0	1946	308.987703403533	204
0	1946	308.987703403533	204
0	1960	310.364864377846	205
0	1960	310.364864377846	205
0	1960	310.364864377846	205
0	1968	312.311421462876	206
0	1968	312.311421462876	206
0	1968	312.311421462876	206
0	1982	313.537564564339	207
0	1982	313.537564564339	207
0	1982	313.537564564339	207
0	1996	314.762566158391	208
0	1996	314.762566158391	208
0	1996	314.762566158391	208
0	2010	316.650165792165	209
0	2010	316.650165792165	209
0	2010	316.650165792165	209
0	2012	318.573080088321	210
0	2012	318.573080088321	210
0	2012	318.573080088321	210
0	2026	319.641333318625	211
0	2026	319.641333318625	211
0	2026	319.641333318625	211
0	2040	321.217086158304	212
0	2040	321.217086158304	212
0	2040	321.217086158304	212
0	2054	322.405868070277	213
0	2054	322.405868070277	213
0	2054	322.405868070277	213
0	2056	323.937960479485	214
0	2056	323.937960479485	214
0	2056	323.937960479485	214
0	2070	325.294445365511	215
0	2070	325.294445365511	215
0	2070	325.294445365511	215
0	2084	326.460769975169	216
0	2084	326.460769975169	216
0	2084	326.460769975169	216
0	2098	328.44114504995	217
0	2098	328.44114504995	217
0	2098	328.44114504995	217
0	2112	329.614338283969	218
0	2112	329.614338283969	218
0	2112	329.614338283969	218
0	2123	331.540479664767	219
0	2123	331.540479664767	219
0	2123	331.540479664767	219
0	2137	332.56571149042	220
0	2137	332.56571149042	220
0	2137	332.56571149042	220
0	2151	334.195613358944	221
0	2151	334.195613358944	221
0	2151	334.195613358944	221
0	2159	335.258982362069	222
0	2159	335.258982362069	222
0	2159	335.258982362069	222
0	2161	336.499010026997	223
0	2161	336.499010026997	223
0	2161	336.499010026997	223
0	2175	338.473784452148	224
0	2175	338.473784452148	224
0	2175	338.473784452148	224
0	2189	339.49548625977	225
0	2189	339.49548625977	225
0	2189	339.49548625977	225
0	2191	340.982092352661	226
0	2191	340.982092352661	226
0	2191	340.982092352661	226
0	2205	342.515549036751	227
0	2205	342.515549036751	227
0	2205	342.515549036751	227
0	2207	343.859559213819	228
0	2207	343.859559213819	228
0	2207	343.859559213819	228
0	2209	345.336911534036	229
0	2209	345.336911534036	229
0	2209	345.336911534036	229
0	2211	346.582902141225	230
0	2211	346.582902141225	230
0	2211	346.582902141225	230
0	2213	348.164171435947	231
0	2213	348.164171435947	231
0	2213	348.164171435947	231
0	2227	349.637557158789	232
0	2227	349.637557158789	232
0	2227	349.637557158789	232
0	2229	351.146329725704	233
0	2229	351.146329725704	233
0	2229	351.146329725704	233
0	2243	352.32983419074	234
0	2243	352.32983419074	234
0	2243	352.32983419074	234
0	2257	354.025241536631	235
0	2257	354.025241536631	235
0	2257	354.025241536631	235
0	2271	355.84206667946	236
0	2271	355.84206667946	236
0	2271	355.84206667946	236
0	2273	357.812163656655	237
0	2273	357.812163656655	237
0	2273	357.812163656655	237
0	2287	358.845570947354	238
0	2287	358.845570947354	238
0	2287	358.845570947354	238
0	2301	360.801960459522	239
0	2301	360.801960459522	239
0	2301	360.801960459522	239
0	2315	362.371832612979	240
0	2315	362.371832612979	240
0	2315	362.371832612979	240
0	2320	363.577222567129	241
0	2320	363.577222567129	241
0	2320	363.577222567129	241
0	2334	364.679294297083	242
0	2334	364.679294297083	242
0	2334	364.679294297083	242
0	2348	366.241151914776	243
0	2348	366.241151914776	243
0	2348	366.241151914776	243
0	2359	367.771351278138	244
0	2359	367.771351278138	244
0	2359	367.771351278138	244
0	2361	369.568302871736	245
0	2361	369.568302871736	245
0	2361	369.568302871736	245
0	2375	371.031347252272	246
0	2375	371.031347252272	246
0	2375	371.031347252272	246
0	2377	372.886993777782	247
0	2377	372.886993777782	247
0	2377	372.886993777782	247
0	2391	374.210208976951	248
0	2391	374.210208976951	248
0	2391	374.210208976951	248
0	2393	376.005135293428	249
0	2393	376.005135293428	249
0	2393	376.005135293428	249
0	2395	377.268214075903	250
0	2395	377.268214075903	250
0	2395	377.268214075903	250
0	2400	379.186934121728	251
0	2400	379.186934121728	251
0	2400	379.186934121728	251
0	2414	380.768613957644	252
0	2414	380.768613957644	252
0	2414	380.768613957644	252
0	2428	382.175076496631	253
0	2428	382.175076496631	253
0	2428	382.175076496631	253
0	2442	383.846504043631	254
0	2442	383.846504043631	254
0	2442	383.846504043631	254
0	2456	385.579630649259	255
0	2456	385.579630649259	255
0	2456	385.579630649259	255
0	2458	386.854637053638	256
0	2458	386.854637053638	256
0	2458	386.854637053638	256
0	2460	388.354087558883	257
0	2460	388.354087558883	257
0	2460	388.354087558883	257
0	2462	389.691236676491	258
0	2462	389.691236676491	258
0	2462	389.691236676491	258
0	2476	390.927050090703	259
0	2476	390.927050090703	259
0	2476	390.927050090703	259
0	2490	392.186423905269	260
0	2490	392.186423905269	260
0	2490	392.186423905269	260
0	2504	393.949004280223	261
0	2504	393.949004280223	261
0	2504	393.949004280223	261
0	2512	395.247594127041	262
0	2512	395.247594127041	262
0	2512	395.247594127041	262
0	2514	397.134813072235	263
0	2514	397.134813072235	263
0	2514	397.134813072235	263
0	2528	398.368431219441	264
0	2528	398.368431219441	264
0	2528	398.368431219441	264
0	2542	400.272623445681	265
0	2542	400.272623445681	265
0	2542	400.272623445681	265
0	2544	401.860111971694	266
0	2544	401.860111971694	266
0	2544	401.860111971694	266
0	2552	403.661892400431	267
0	2552	403.661892400431	267
0	2552	403.661892400431	267
0	2554	405.001010817551	268
0	2554	405.001010817551	268
0	2554	405.001010817551	268
0	2568	406.282447461114	269
0	2568	406.282447461114	269
0	2568	406.282447461114	269
0	2582	407.641309040674	270
0	2582	407.641309040674	270
0	2582	407.641309040674	270
0	2596	409.386612966266	271
0	2596	409.386612966266	271
0	2596	409.386612966266	271
0	2610	410.97571132456	272
0	2610	410.97571132456	272
0	2610	410.97571132456	272
0	2624	412.003666701569	273
0	2624	412.003666701569	273
0	2624	412.003666701569	273
0	2638	413.383701280533	274
0	2638	413.383701280533	274
0	2638	413.383701280533	274
0	2652	414.82679946635	275
0	2652	414.82679946635	275
0	2652	414.82679946635	275
0	2654	416.358405284426	276
0	2654	416.358405284426	276
0	2654	416.358405284426	276
0	2659	417.888637466431	277
0	2659	417.888637466431	277
0	2659	417.888637466431	277
0	2673	419.079487467492	278
0	2673	419.079487467492	278
0	2673	419.079487467492	278
0	2687	420.400494991643	279
0	2687	420.400494991643	279
0	2687	420.400494991643	279
0	2701	421.515632839249	280
0	2701	421.515632839249	280
0	2701	421.515632839249	280
0	2703	423.312337845638	281
0	2703	423.312337845638	281
0	2703	423.312337845638	281
0	2705	424.627362427376	282
0	2705	424.627362427376	282
0	2705	424.627362427376	282
0	2707	425.891566696651	283
0	2707	425.891566696651	283
0	2707	425.891566696651	283
0	2718	426.981209173873	284
0	2718	426.981209173873	284
0	2718	426.981209173873	284
0	2720	428.378938941825	285
0	2720	428.378938941825	285
0	2720	428.378938941825	285
0	2734	429.744831085512	286
0	2734	429.744831085512	286
0	2734	429.744831085512	286
0	2736	430.989163666805	287
0	2736	430.989163666805	287
0	2736	430.989163666805	287
0	2750	432.878925806917	288
0	2750	432.878925806917	288
0	2750	432.878925806917	288
0	2764	434.733571271486	289
0	2764	434.733571271486	289
0	2764	434.733571271486	289
0	2766	435.747920420793	290
0	2766	435.747920420793	290
0	2766	435.747920420793	290
0	2780	437.629333039121	291
0	2780	437.629333039121	291
0	2780	437.629333039121	291
0	2794	439.393966052755	292
0	2794	439.393966052755	292
0	2794	439.393966052755	292
0	2796	440.777628043507	293
0	2796	440.777628043507	293
0	2796	440.777628043507	293
0	2810	442.741648429845	294
0	2810	442.741648429845	294
0	2810	442.741648429845	294
0	2824	444.153317849225	295
0	2824	444.153317849225	295
0	2824	444.153317849225	295
0	2838	445.542168472967	296
0	2838	445.542168472967	296
0	2838	445.542168472967	296
0	2852	447.384628681307	297
0	2852	447.384628681307	297
0	2852	447.384628681307	297
0	2866	449.367432030457	298
0	2866	449.367432030457	298
0	2866	449.367432030457	298
0	2868	450.87102977869	299
0	2868	450.87102977869	299
0	2868	450.87102977869	299
0	2882	452.360255274762	300
0	2882	452.360255274762	300
0	2882	452.360255274762	300
0	2884	453.61422717206	301
0	2884	453.61422717206	301
0	2884	453.61422717206	301
0	2898	455.560642680226	302
0	2898	455.560642680226	302
0	2898	455.560642680226	302
0	2900	457.559086725654	303
0	2900	457.559086725654	303
0	2900	457.559086725654	303
0	2914	459.559050743308	304
0	2914	459.559050743308	304
0	2914	459.559050743308	304
0	2916	460.874241389174	305
0	2916	460.874241389174	305
0	2916	460.874241389174	305
0	2930	462.477279527185	306
0	2930	462.477279527185	306
0	2930	462.477279527185	306
0	2932	463.776446024959	307
0	2932	463.776446024959	307
0	2932	463.776446024959	307
0	2946	465.317341185945	308
0	2946	465.317341185945	308
0	2946	465.317341185945	308
0	2948	466.6406317184	309
0	2948	466.6406317184	309
0	2948	466.6406317184	309
0	2950	467.946327101744	310
0	2950	467.946327101744	310
0	2950	467.946327101744	310
0	2952	469.931592060092	311
0	2952	469.931592060092	311
0	2952	469.931592060092	311
0	2966	471.66566773744	312
0	2966	471.66566773744	312
0	2966	471.66566773744	312
0	2980	473.316803586741	313
0	2980	473.316803586741	313
0	2980	473.316803586741	313
0	2994	475.110062888197	314
0	2994	475.110062888197	314
0	2994	475.110062888197	314
0	3005	476.418814338583	315
0	3005	476.418814338583	315
0	3005	476.418814338583	315
0	3019	478.109467885762	316
0	3019	478.109467885762	316
0	3019	478.109467885762	316
0	3033	479.610919057697	317
0	3033	479.610919057697	317
0	3033	479.610919057697	317
0	3035	481.411961088262	318
0	3035	481.411961088262	318
0	3035	481.411961088262	318
0	3037	482.528702991388	319
0	3037	482.528702991388	319
0	3037	482.528702991388	319
0	3051	484.107154535667	320
0	3051	484.107154535667	320
0	3051	484.107154535667	320
0	3065	485.195365022474	321
0	3065	485.195365022474	321
0	3065	485.195365022474	321
0	3079	486.301566891211	322
0	3079	486.301566891211	322
0	3079	486.301566891211	322
0	3093	488.253199536891	323
0	3093	488.253199536891	323
0	3093	488.253199536891	323
0	3107	489.295587421467	324
0	3107	489.295587421467	324
0	3107	489.295587421467	324
0	3121	491.277264339921	325
0	3121	491.277264339921	325
0	3121	491.277264339921	325
0	3123	492.394317440062	326
0	3123	492.394317440062	326
0	3123	492.394317440062	326
0	3137	493.474611789758	327
0	3137	493.474611789758	327
0	3137	493.474611789758	327
0	3151	494.568272491057	328
0	3151	494.568272491057	328
0	3151	494.568272491057	328
0	3165	496.330812109706	329
0	3165	496.330812109706	329
0	3165	496.330812109706	329
0	3167	497.960430411694	330
0	3167	497.960430411694	330
0	3167	497.960430411694	330
0	3175	499.934858456559	331
0	3175	499.934858456559	331
0	3175	499.934858456559	331
0	3177	501.049550984593	332
0	3177	501.049550984593	332
0	3177	501.049550984593	332
0	3191	502.452258200224	333
0	3191	502.452258200224	333
0	3191	502.452258200224	333
0	3205	504.366860891764	334
0	3205	504.366860891764	334
0	3205	504.366860891764	334
0	3216	506.240741881846	335
0	3216	506.240741881846	335
0	3216	506.240741881846	335
0	3218	507.74538807741	336
0	3218	507.74538807741	336
0	3218	507.74538807741	336
0	3232	509.331118166518	337
0	3232	509.331118166518	337
0	3232	509.331118166518	337
0	3234	511.114625935747	338
0	3234	511.114625935747	338
0	3234	511.114625935747	338
0	3248	512.400547865151	339
0	3248	512.400547865151	339
0	3248	512.400547865151	339
0	3262	514.262185584127	340
0	3262	514.262185584127	340
0	3262	514.262185584127	340
0	3276	515.364368091176	341
0	3276	515.364368091176	341
0	3276	515.364368091176	341
0	3290	516.934804779549	342
0	3290	516.934804779549	342
0	3290	516.934804779549	342
0	3304	518.255247010688	343
0	3304	518.255247010688	343
0	3304	518.255247010688	343
0	3318	520.086550669118	344
0	3318	520.086550669118	344
0	3318	520.086550669118	344
0	3332	521.879226048782	345
0	3332	521.879226048782	345
0	3332	521.879226048782	345
0	3337	523.525681955812	346
0	3337	523.525681955812	346
0	3337	523.525681955812	346
0	3351	524.916786968082	347
0	3351	524.916786968082	347
0	3351	524.916786968082	347
0	3353	526.350051795903	348
0	3353	526.350051795903	348
0	3353	526.350051795903	348
0	3355	527.623890939008	349
0	3355	527.623890939008	349
0	3355	527.623890939008	349
0	3357	528.899556271338	350
0	3357	528.899556271338	350
0	3357	528.899556271338	350
0	3371	530.441024608283	351
0	3371	530.441024608283	351
0	3371	530.441024608283	351
0	3385	532.391917715619	352
0	3385	532.391917715619	352
0	3385	532.391917715619	352
0	3390	534.122638530402	353
0	3390	534.122638530402	353
0	3390	534.122638530402	353
0	3404	535.539262746765	354
0	3404	535.539262746765	354
0	3404	535.539262746765	354
0	3418	536.739252750368	355
0	3418	536.739252750368	355
0	3418	536.739252750368	355