version 3
run General-2-20231019-19:47:19-63521
attr configname General
attr datetime 20231019-19:47:19
attr datetimef 20231019-194719
attr experiment General
attr inifile omnetpp.ini
attr iterationvars ""
attr iterationvarsd ""
attr iterationvarsf ""
attr measurement ""
attr network Reliability
attr processid 63521
attr repetition 2
attr replication #2
attr resultdir results
attr runnumber 2
attr seedset 2
config network Reliability
config Reliability.node[*].transmissionTime "uniform(1s, 2s)"
config Reliability.node[*].delayTime "uniform(0.01s, 0.2s)"
config Reliability.node[*].lossProbability 0.3
config record-eventlog true
config sim-time-limit 1000s
config repeat 5

vector 0 Reliability.node[0] txVector ETV
vector 1 Reliability.node[1] txVector ETV
vector 2 Reliability.node[1] rxVector ETV
vector 3 Reliability.node[3] txVector ETV
vector 4 Reliability.node[3] rxVector ETV
vector 5 Reliability.node[4] txVector ETV
vector 6 Reliability.node[4] rxVector ETV
vector 7 Reliability.node[2] txVector ETV
vector 8 Reliability.node[2] rxVector ETV
vector 9 Reliability.node[5] rxVector ETV
vector 10 Reliability.node[5] e2eVector ETV
vector 11 Reliability.node[0] rxVector ETV
0	1	0.092839031499	1
0	1	0.092839031499	1
0	1	0.092839031499	1
0	15	1.118765259413	2
0	15	1.118765259413	2
0	15	1.118765259413	2
0	29	2.838519490343	3
0	29	2.838519490343	3
0	29	2.838519490343	3
0	43	4.058825696605	4
0	43	4.058825696605	4
0	43	4.058825696605	4
0	57	5.276095616418	5
0	57	5.276095616418	5
0	57	5.276095616418	5
0	71	6.303297982571	6
0	71	6.303297982571	6
0	71	6.303297982571	6
0	85	8.014515223467	7
0	85	8.014515223467	7
0	85	8.014515223467	7
0	99	9.676717245505	8
0	99	9.676717245505	8
0	99	9.676717245505	8
0	113	11.555919275871	9
0	113	11.555919275871	9
0	113	11.555919275871	9
0	127	12.902157188412	10
0	127	12.902157188412	10
0	127	12.902157188412	10
0	129	14.838405231731	11
0	129	14.838405231731	11
0	129	14.838405231731	11
0	143	15.948988377601	12
0	143	15.948988377601	12
0	143	15.948988377601	12
0	145	17.094198734518	13
0	145	17.094198734518	13
0	145	17.094198734518	13
0	156	18.326316984622	14
0	156	18.326316984622	14
0	156	18.326316984622	14
0	158	19.344587020595	15
0	158	19.344587020595	15
0	158	19.344587020595	15
0	172	20.375176498453	16
0	172	20.375176498453	16
0	172	20.375176498453	16
0	186	22.367160747546	17
0	186	22.367160747546	17
0	186	22.367160747546	17
0	200	23.869939495131	18
0	200	23.869939495131	18
0	200	23.869939495131	18
0	205	25.224111917682	19
0	205	25.224111917682	19
0	205	25.224111917682	19
0	219	27.150013514815	20
0	219	27.150013514815	20
0	219	27.150013514815	20
0	233	28.842632384526	21
0	233	28.842632384526	21
0	233	28.842632384526	21
0	247	30.646046550034	22
0	247	30.646046550034	22
0	247	30.646046550034	22
0	261	31.794722876067	23
0	261	31.794722876067	23
0	261	31.794722876067	23
0	263	32.914762668333	24
0	263	32.914762668333	24
0	263	32.914762668333	24
0	277	34.169776900227	25
0	277	34.169776900227	25
0	277	34.169776900227	25
0	288	35.883098462851	26
0	288	35.883098462851	26
0	288	35.883098462851	26
0	302	37.248576849953	27
0	302	37.248576849953	27
0	302	37.248576849953	27
0	310	38.413355472752	28
0	310	38.413355472752	28
0	310	38.413355472752	28
0	324	39.662925160744	29
0	324	39.662925160744	29
0	324	39.662925160744	29
0	326	41.56622131753	30
0	326	41.56622131753	30
0	326	41.56622131753	30
0	337	43.41665114837	31
0	337	43.41665114837	31
0	337	43.41665114837	31
0	351	45.35982187141	32
0	351	45.35982187141	32
0	351	45.35982187141	32
0	353	46.963962708854	33
0	353	46.963962708854	33
0	353	46.963962708854	33
0	367	48.428175054046	34
0	367	48.428175054046	34
0	367	48.428175054046	34
0	381	49.746700694573	35
0	381	49.746700694573	35
0	381	49.746700694573	35
0	383	51.053065368461	36
0	383	51.053065368461	36
0	383	51.053065368461	36
0	385	52.084367374212	37
0	385	52.084367374212	37
0	385	52.084367374212	37
0	396	53.870165234685	38
0	396	53.870165234685	38
0	396	53.870165234685	38
0	410	55.777224667158	39
0	410	55.777224667158	39
0	410	55.777224667158	39
0	424	57.374241211006	40
0	424	57.374241211006	40
0	424	57.374241211006	40
0	438	59.119116364067	41
0	438	59.119116364067	41
0	438	59.119116364067	41
0	452	60.506087584907	42
0	452	60.506087584907	42
0	452	60.506087584907	42
0	454	62.117406542666	43
0	454	62.117406542666	43
0	454	62.117406542666	43
0	456	64.058589040555	44
0	456	64.058589040555	44
0	456	64.058589040555	44
0	470	65.223021541975	45
0	470	65.223021541975	45
0	470	65.223021541975	45
0	472	66.560741164043	46
0	472	66.560741164043	46
0	472	66.560741164043	46
0	474	67.682779083048	47
0	474	67.682779083048	47
0	474	67.682779083048	47
0	488	69.055550504495	48
0	488	69.055550504495	48
0	488	69.055550504495	48
0	493	70.878352072109	49
0	493	70.878352072109	49
0	493	70.878352072109	49
0	507	72.195635427041	50
0	507	72.195635427041	50
0	507	72.195635427041	50
0	509	73.912283868315	51
0	509	73.912283868315	51
0	509	73.912283868315	51
0	511	75.491485830881	52
0	511	75.491485830881	52
0	511	75.491485830881	52
0	525	76.519994404186	53
0	525	76.519994404186	53
0	525	76.519994404186	53
0	539	78.072774364166	54
0	539	78.072774364166	54
0	539	78.072774364166	54
0	553	79.613742461214	55
0	553	79.613742461214	55
0	553	79.613742461214	55
0	567	81.426260157041	56
0	567	81.426260157041	56
0	567	81.426260157041	56
0	581	83.334195488617	57
0	581	83.334195488617	57
0	581	83.334195488617	57
0	595	84.421451107385	58
0	595	84.421451107385	58
0	595	84.421451107385	58
0	609	86.220682120668	59
0	609	86.220682120668	59
0	609	86.220682120668	59
0	623	87.226254435042	60
0	623	87.226254435042	60
0	623	87.226254435042	60
0	637	88.9374211	61
0	637	88.9374211	61
0	637	88.9374211	61
0	648	90.833274951223	62
0	648	90.833274951223	62
0	648	90.833274951223	62
0	650	92.812524241181	63
0	650	92.812524241181	63
0	650	92.812524241181	63
0	661	94.360120141199	64
0	661	94.360120141199	64
0	661	94.360120141199	64
0	672	95.764718636423	65
0	672	95.764718636423	65
0	672	95.764718636423	65
0	686	97.08061077727	66
0	686	97.08061077727	66
0	686	97.08061077727	66
0	688	98.307534354757	67
0	688	98.307534354757	67
0	688	98.307534354757	67
0	693	100.102532536741	68
0	693	100.102532536741	68
0	693	100.102532536741	68
0	707	101.222147878278	69
0	707	101.222147878278	69
0	707	101.222147878278	69
0	721	102.75616246324	70
0	721	102.75616246324	70
0	721	102.75616246324	70
0	729	104.503529131431	71
0	729	104.503529131431	71
0	729	104.503529131431	71
0	731	106.226655025519	72
0	731	106.226655025519	72
0	731	106.226655025519	72
0	733	107.43989683154	73
0	733	107.43989683154	73
0	733	107.43989683154	73
0	747	109.044243767177	74
0	747	109.044243767177	74
0	747	109.044243767177	74
0	761	110.547515713628	75
0	761	110.547515713628	75
0	761	110.547515713628	75
0	763	112.307434309292	76
0	763	112.307434309292	76
0	763	112.307434309292	76
0	777	113.380467663537	77
0	777	113.380467663537	77
0	777	113.380467663537	77
0	791	114.794302717568	78
0	791	114.794302717568	78
0	791	114.794302717568	78
0	796	116.408384794155	79
0	796	116.408384794155	79
0	796	116.408384794155	79
0	807	117.909860583739	80
0	807	117.909860583739	80
0	807	117.909860583739	80
0	821	119.460597668793	81
0	821	119.460597668793	81
0	821	119.460597668793	81
0	829	121.332096572285	82
0	829	121.332096572285	82
0	829	121.332096572285	82
0	843	122.686527011701	83
0	843	122.686527011701	83
0	843	122.686527011701	83
0	854	123.965627091489	84
0	854	123.965627091489	84
0	854	123.965627091489	84
0	859	125.255274945888	85
0	859	125.255274945888	85
0	859	125.255274945888	85
0	864	127.200180734526	86
0	864	127.200180734526	86
0	864	127.200180734526	86
0	878	128.594129714435	87
0	878	128.594129714435	87
0	878	128.594129714435	87
0	892	130.327581684357	88
0	892	130.327581684357	88
0	892	130.327581684357	88
0	894	131.660477205199	89
0	894	131.660477205199	89
0	894	131.660477205199	89
0	908	133.206016683039	90
0	908	133.206016683039	90
0	908	133.206016683039	90
0	922	134.463978946927	91
0	922	134.463978946927	91
0	922	134.463978946927	91
0	936	135.531957107383	92
0	936	135.531957107383	92
0	936	135.531957107383	92
0	938	136.787050621604	93
0	938	136.787050621604	93
0	938	136.787050621604	93
0	940	138.112318737219	94
0	940	138.112318737219	94
0	940	138.112318737219	94
0	954	139.155658582478	95
0	954	139.155658582478	95
0	954	139.155658582478	95
0	959	140.68386511041	96
0	959	140.68386511041	96
0	959	140.68386511041	96
0	970	141.851072756128	97
0	970	141.851072756128	97
0	970	141.851072756128	97
0	984	143.823106233283	98
0	984	143.823106233283	98
0	984	143.823106233283	98
0	986	145.69249704063	99
0	986	145.69249704063	99
0	986	145.69249704063	99
0	1000	147.608072167515	100
0	1000	147.608072167515	100
0	1000	147.608072167515	100
0	1014	149.284934021319	101
0	1014	149.284934021319	101
0	1014	149.284934021319	101
0	1028	150.686182798371	102
0	1028	150.686182798371	102
0	1028	150.686182798371	102
0	1042	152.137863690285	103
0	1042	152.137863690285	103
0	1042	152.137863690285	103
0	1056	154.06991428907	104
0	1056	154.06991428907	104
0	1056	154.06991428907	104
0	1061	155.591755698221	105
0	1061	155.591755698221	105
0	1061	155.591755698221	105
0	1075	156.952278397763	106
0	1075	156.952278397763	106
0	1075	156.952278397763	106
0	1089	158.171438263748	107
0	1089	158.171438263748	107
0	1089	158.171438263748	107
0	1103	160.015589206731	108
0	1103	160.015589206731	108
0	1103	160.015589206731	108
0	1105	161.610350469844	109
0	1105	161.610350469844	109
0	1105	161.610350469844	109
0	1119	163.127804975975	110
0	1119	163.127804975975	110
0	1119	163.127804975975	110
0	1121	164.153954099649	111
0	1121	164.153954099649	111
0	1121	164.153954099649	111
0	1135	165.630532618397	112
0	1135	165.630532618397	112
0	1135	165.630532618397	112
0	1149	167.342985175102	113
0	1149	167.342985175102	113
0	1149	167.342985175102	113
0	1163	169.034040808928	114
0	1163	169.034040808928	114
0	1163	169.034040808928	114
0	1177	171.017497134645	115
0	1177	171.017497134645	115
0	1177	171.017497134645	115
0	1191	172.990290950768	116
0	1191	172.990290950768	116
0	1191	172.990290950768	116
0	1205	174.436432777223	117
0	1205	174.436432777223	117
0	1205	174.436432777223	117
0	1219	176.220995555417	118
0	1219	176.220995555417	118
0	1219	176.220995555417	118
0	1221	177.337780396239	119
0	1221	177.337780396239	119
0	1221	177.337780396239	119
0	1235	178.448711537308	120
0	1235	178.448711537308	120
0	1235	178.448711537308	120
0	1237	180.291375550925	121
0	1237	180.291375550925	121
0	1237	180.291375550925	121
0	1248	181.880872765574	122
0	1248	181.880872765574	122
0	1248	181.880872765574	122
0	1262	183.5942487803	123
0	1262	183.5942487803	123
0	1262	183.5942487803	123
0	1276	184.805235479976	124
0	1276	184.805235479976	124
0	1276	184.805235479976	124
0	1278	186.70266626614	125
0	1278	186.70266626614	125
0	1278	186.70266626614	125
0	1292	188.579913335171	126
0	1292	188.579913335171	126
0	1292	188.579913335171	126
0	1306	190.556777673558	127
0	1306	190.556777673558	127
0	1306	190.556777673558	127
0	1320	192.527643299912	128
0	1320	192.527643299912	128
0	1320	192.527643299912	128
0	1322	193.661375289102	129
0	1322	193.661375289102	129
0	1322	193.661375289102	129
0	1336	195.519528727763	130
0	1336	195.519528727763	130
0	1336	195.519528727763	130
0	1350	197.37641016093	131
0	1350	197.37641016093	131
0	1350	197.37641016093	131
0	1364	198.897493327986	132
0	1364	198.897493327986	132
0	1364	198.897493327986	132
0	1366	200.582445004507	133
0	1366	200.582445004507	133
0	1366	200.582445004507	133
0	1380	202.465909657552	134
0	1380	202.465909657552	134
0	1380	202.465909657552	134
0	1391	204.074358111498	135
0	1391	204.074358111498	135
0	1391	204.074358111498	135
0	1393	205.226935443253	136
0	1393	205.226935443253	136
0	1393	205.226935443253	136
0	1395	206.726938121504	137
0	1395	206.726938121504	137
0	1395	206.726938121504	137
0	1409	208.150189808122	138
0	1409	208.150189808122	138
0	1409	208.150189808122	138
0	1420	209.51354071197	139
0	1420	209.51354071197	139
0	1420	209.51354071197	139
0	1425	210.651543296658	140
0	1425	210.651543296658	140
0	1425	210.651543296658	140
0	1439	211.867704417807	141
0	1439	211.867704417807	141
0	1439	211.867704417807	141
0	1453	212.878684852756	142
0	1453	212.878684852756	142
0	1453	212.878684852756	142
0	1455	214.064828526247	143
0	1455	214.064828526247	143
0	1455	214.064828526247	143
0	1469	216.037579546468	144
0	1469	216.037579546468	144
0	1469	216.037579546468	144
0	1471	217.328985809134	145
0	1471	217.328985809134	145
0	1471	217.328985809134	145
0	1482	218.825124003943	146
0	1482	218.825124003943	146
0	1482	218.825124003943	146
0	1496	220.318891812833	147
0	1496	220.318891812833	147
0	1496	220.318891812833	147
0	1498	221.992585191522	148
0	1498	221.992585191522	148
0	1498	221.992585191522	148
0	1500	223.027280731844	149
0	1500	223.027280731844	149
0	1500	223.027280731844	149
0	1514	224.691191701703	150
0	1514	224.691191701703	150
0	1514	224.691191701703	150
0	1516	226.208806852829	151
0	1516	226.208806852829	151
0	1516	226.208806852829	151
0	1518	227.834348239024	152
0	1518	227.834348239024	152
0	1518	227.834348239024	152
0	1532	229.530832436421	153
0	1532	229.530832436421	153
0	1532	229.530832436421	153
0	1534	231.314533850663	154
0	1534	231.314533850663	154
0	1534	231.314533850663	154
0	1548	232.362460721303	155
0	1548	232.362460721303	155
0	1548	232.362460721303	155
0	1553	234.127410904989	156
0	1553	234.127410904989	156
0	1553	234.127410904989	156
0	1567	235.804915239355	157
0	1567	235.804915239355	157
0	1567	235.804915239355	157
0	1581	237.607443257953	158
0	1581	237.607443257953	158
0	1581	237.607443257953	158
0	1583	239.567001569104	159
0	1583	239.567001569104	159
0	1583	239.567001569104	159
0	1585	240.930885269559	160
0	1585	240.930885269559	160
0	1585	240.930885269559	160
0	1599	242.5639951518	161
0	1599	242.5639951518	161
0	1599	242.5639951518	161
0	1601	243.610847688067	162
0	1601	243.610847688067	162
0	1601	243.610847688067	162
0	1615	245.359066197668	163
0	1615	245.359066197668	163
0	1615	245.359066197668	163
0	1629	246.43540293539	164
0	1629	246.43540293539	164
0	1629	246.43540293539	164
0	1631	248.000847070497	165
0	1631	248.000847070497	165
0	1631	248.000847070497	165
0	1645	249.852038173723	166
0	1645	249.852038173723	166
0	1645	249.852038173723	166
0	1659	250.880478657569	167
0	1659	250.880478657569	167
0	1659	250.880478657569	167
0	1673	251.965806539889	168
0	1673	251.965806539889	168
0	1673	251.965806539889	168
0	1687	253.396019793601	169
0	1687	253.396019793601	169
0	1687	253.396019793601	169
0	1701	254.800033943747	170
0	1701	254.800033943747	170
0	1701	254.800033943747	170
0	1715	255.984050796619	171
0	1715	255.984050796619	171
0	1715	255.984050796619	171
0	1717	257.429588410324	172
0	1717	257.429588410324	172
0	1717	257.429588410324	172
0	1719	258.933046617099	173
0	1719	258.933046617099	173
0	1719	258.933046617099	173
0	1733	260.65473084014	174
0	1733	260.65473084014	174
0	1733	260.65473084014	174
0	1747	261.897830549647	175
0	1747	261.897830549647	175
0	1747	261.897830549647	175
0	1761	263.656717289491	176
0	1761	263.656717289491	176
0	1761	263.656717289491	176
0	1775	265.024281529729	177
0	1775	265.024281529729	177
0	1775	265.024281529729	177
0	1777	266.87418967953	178
0	1777	266.87418967953	178
0	1777	266.87418967953	178
0	1791	268.042075175578	179
0	1791	268.042075175578	179
0	1791	268.042075175578	179
0	1793	269.163024276514	180
0	1793	269.163024276514	180
0	1793	269.163024276514	180
0	1807	270.476788937366	181
0	1807	270.476788937366	181
0	1807	270.476788937366	181
0	1821	271.568522460079	182
0	1821	271.568522460079	182
0	1821	271.568522460079	182
0	1835	273.085940622743	183
0	1835	273.085940622743	183
0	1835	273.085940622743	183
0	1849	275.022055553524	184
0	1849	275.022055553524	184
0	1849	275.022055553524	184
0	1863	276.294487453783	185
0	1863	276.294487453783	185
0	1863	276.294487453783	185
0	1865	278.285249024183	186
0	1865	278.285249024183	186
0	1865	278.285249024183	186
0	1879	280.058529869672	187
0	1879	280.058529869672	187
0	1879	280.058529869672	187
0	1893	281.822421843903	188
0	1893	281.822421843903	188
0	1893	281.822421843903	188
0	1895	283.118111920794	189
0	1895	283.118111920794	189
0	1895	283.118111920794	189
0	1909	284.945256202034	190
0	1909	284.945256202034	190
0	1909	284.945256202034	190
0	1911	286.326320855431	191
0	1911	286.326320855431	191
0	1911	286.326320855431	191
0	1913	287.872826488474	192
0	1913	287.872826488474	192
0	1913	287.872826488474	192
0	1927	289.320418515261	193
0	1927	289.320418515261	193
0	1927	289.320418515261	193
0	1941	291.274218324823	194
0	1941	291.274218324823	194
0	1941	291.274218324823	194
0	1943	292.923703889148	195
0	1943	292.923703889148	195
0	1943	292.923703889148	195
0	1957	294.555916557805	196
0	1957	294.555916557805	196
0	1957	294.555916557805	196
0	1959	296.535419086944	197
0	1959	296.535419086944	197
0	1959	296.535419086944	197
0	1961	298.115424476582	198
0	1961	298.115424476582	198
0	1961	298.115424476582	198
0	1975	299.525295905088	199
0	1975	299.525295905088	199
0	1975	299.525295905088	199
0	1977	300.712064513489	200
0	1977	300.712064513489	200
0	1977	300.712064513489	200
0	1985	302.414255457483	201
0	1985	302.414255457483	201
0	1985	302.414255457483	201
0	1987	303.955185079733	202
0	1987	303.955185079733	202
0	1987	303.955185079733	202
0	2001	305.694751788648	203
0	2001	305.694751788648	203
0	2001	305.694751788648	203
0	2012	307.153221813049	204
0	2012	307.153221813049	204
0	2012	307.153221813049	204
0	2014	308.516751142703	205
0	2014	308.516751142703	205
0	2014	308.516751142703	205
0	2025	309.607664257539	206
0	2025	309.607664257539	206
0	2025	309.607664257539	206
0	2039	310.616403936194	207
0	2039	310.616403936194	207
0	2039	310.616403936194	207
0	2053	311.857650745213	208
0	2053	311.857650745213	208
0	2053	311.857650745213	208
0	2067	312.987168768207	209
0	2067	312.987168768207	209
0	2067	312.987168768207	209
0	2069	314.374233302679	210
0	2069	314.374233302679	210
0	2069	314.374233302679	210
0	2083	315.77034321988	211
0	2083	315.77034321988	211
0	2083	315.77034321988	211
0	2085	317.61456574874	212
0	2085	317.61456574874	212
0	2085	317.61456574874	212
0	2099	319.306899856795	213
0	2099	319.306899856795	213
0	2099	319.306899856795	213
0	2113	321.181069080271	214
0	2113	321.181069080271	214
0	2113	321.181069080271	214
0	2118	322.540070492095	215
0	2118	322.540070492095	215
0	2118	322.540070492095	215
0	2123	323.792994023553	216
0	2123	323.792994023553	216
0	2123	323.792994023553	216
0	2134	325.125921293414	217
0	2134	325.125921293414	217
0	2134	325.125921293414	217
0	2148	326.615502876715	218
0	2148	326.615502876715	218
0	2148	326.615502876715	218
0	2153	328.552832125706	219
0	2153	328.552832125706	219
0	2153	328.552832125706	219
0	2164	329.941928060047	220
0	2164	329.941928060047	220
0	2164	329.941928060047	220
0	2169	331.167672745671	221
0	2169	331.167672745671	221
0	2169	331.167672745671	221
0	2183	333.030979264548	222
0	2183	333.030979264548	222
0	2183	333.030979264548	222
0	2185	334.09123164464	223
0	2185	334.09123164464	223
0	2185	334.09123164464	223
0	2190	335.658924237613	224
0	2190	335.658924237613	224
0	2190	335.658924237613	224
0	2198	336.779844467782	225
0	2198	336.779844467782	225
0	2198	336.779844467782	225
0	2200	338.192382714034	226
0	2200	338.192382714034	226
0	2200	338.192382714034	226
0	2214	339.356339248384	227
0	2214	339.356339248384	227
0	2214	339.356339248384	227
0	2228	341.056727907874	228
0	2228	341.056727907874	228
0	2228	341.056727907874	228
0	2230	342.107895324726	229
0	2230	342.107895324726	229
0	2230	342.107895324726	229
0	2244	343.710589149755	230
0	2244	343.710589149755	230
0	2244	343.710589149755	230
0	2246	345.390026916771	231
0	2246	345.390026916771	231
0	2246	345.390026916771	231
0	2251	347.38475994116	232
0	2251	347.38475994116	232
0	2251	347.38475994116	232
0	2265	349.078453101938	233
0	2265	349.078453101938	233
0	2265	349.078453101938	233
0	2267	350.62012088138	234
0	2267	350.62012088138	234
0	2267	350.62012088138	234
0	2269	352.481644179927	235
0	2269	352.481644179927	235
0	2269	352.481644179927	235
0	2283	353.829471480589	236
0	2283	353.829471480589	236
0	2283	353.829471480589	236
0	2297	354.876374623993	237
0	2297	354.876374623993	237
0	2297	354.876374623993	237
0	2299	356.023347492119	238
0	2299	356.023347492119	238
0	2299	356.023347492119	238
0	2313	357.412508907983	239
0	2313	357.412508907983	239
0	2313	357.412508907983	239
0	2315	358.874591480497	240
0	2315	358.874591480497	240
0	2315	358.874591480497	240
0	2317	360.537943965777	241
0	2317	360.537943965777	241
0	2317	360.537943965777	241
0	2331	362.488630905769	242
0	2331	362.488630905769	242
0	2331	362.488630905769	242
0	2345	363.799306345427	243
0	2345	363.799306345427	243
0	2345	363.799306345427	243
0	2347	365.054680685302	244
0	2347	365.054680685302	244
0	2347	365.054680685302	244
0	2361	366.461173594486	245
0	2361	366.461173594486	245
0	2361	366.461173594486	245
0	2366	368.183708831457	246
0	2366	368.183708831457	246
0	2366	368.183708831457	246
0	2377	369.388467745179	247
0	2377	369.388467745179	247
0	2377	369.388467745179	247
0	2385	370.812416513938	248
0	2385	370.812416513938	248
0	2385	370.812416513938	248
0	2396	372.139459480321	249
0	2396	372.139459480321	249
0	2396	372.139459480321	249
0	2410	373.902548576495	250
0	2410	373.902548576495	250
0	2410	373.902548576495	250
0	2412	374.958813424245	251
0	2412	374.958813424245	251
0	2412	374.958813424245	251
0	2426	376.896446889755	252
0	2426	376.896446889755	252
0	2426	376.896446889755	252
0	2440	378.785378788388	253
0	2440	378.785378788388	253
0	2440	378.785378788388	253
0	2442	380.484260190301	254
0	2442	380.484260190301	254
0	2442	380.484260190301	254
0	2447	382.159461989789	255
0	2447	382.159461989789	255
0	2447	382.159461989789	255
0	2461	383.385591517458	256
0	2461	383.385591517458	256
0	2461	383.385591517458	256
0	2463	385.042331938189	257
0	2463	385.042331938189	257
0	2463	385.042331938189	257
0	2465	386.926057545724	258
0	2465	386.926057545724	258
0	2465	386.926057545724	258
0	2479	388.366783496947	259
0	2479	388.366783496947	259
0	2479	388.366783496947	259
0	2493	389.549567364878	260
0	2493	389.549567364878	260
0	2493	389.549567364878	260
0	2507	390.815322188684	261
0	2507	390.815322188684	261
0	2507	390.815322188684	261
0	2515	392.713981577219	262
0	2515	392.713981577219	262
0	2515	392.713981577219	262
0	2529	394.056026951434	263
0	2529	394.056026951434	263
0	2529	394.056026951434	263
0	2543	395.775979256282	264
0	2543	395.775979256282	264
0	2543	395.775979256282	264
0	2557	397.148372130493	265
0	2557	397.148372130493	265
0	2557	397.148372130493	265
0	2559	398.244523033524	266
0	2559	398.244523033524	266
0	2559	398.244523033524	266
0	2573	399.34857172079	267
0	2573	399.34857172079	267
0	2573	399.34857172079	267
0	2575	400.853650716158	268
0	2575	400.853650716158	268
0	2575	400.853650716158	268
0	2589	402.289014204663	269
0	2589	402.289014204663	269
0	2589	402.289014204663	269
0	2603	403.779865240005	270
0	2603	403.779865240005	270
0	2603	403.779865240005	270
0	2617	405.694329455055	271
0	2617	405.694329455055	271
0	2617	405.694329455055	271
0	2628	406.895255072301	272
0	2628	406.895255072301	272
0	2628	406.895255072301	272
0	2636	407.981438550658	273
0	2636	407.981438550658	273
0	2636	407.981438550658	273
0	2638	409.044120444709	274
0	2638	409.044120444709	274
0	2638	409.044120444709	274
0	2652	411.012076137846	275
0	2652	411.012076137846	275
0	2652	411.012076137846	275
0	2654	412.933992782401	276
0	2654	412.933992782401	276
0	2654	412.933992782401	276
0	2668	414.728028793147	277
0	2668	414.728028793147	277
0	2668	414.728028793147	277
0	2682	416.259352968566	278
0	2682	416.259352968566	278
0	2682	416.259352968566	278
0	2696	417.957161733907	279
0	2696	417.957161733907	279
0	2696	417.957161733907	279
0	2707	419.471924732466	280
0	2707	419.471924732466	280
0	2707	419.471924732466	280
0	2721	420.962456370731	281
0	2721	420.962456370731	281
0	2721	420.962456370731	281
0	2732	422.875480994609	282
0	2732	422.875480994609	282
0	2732	422.875480994609	282
0	2734	424.272649156888	283
0	2734	424.272649156888	283
0	2734	424.272649156888	283
0	2736	426.023863833657	284
0	2736	426.023863833657	284
0	2736	426.023863833657	284
0	2750	427.954085443894	285
0	2750	427.954085443894	285
0	2750	427.954085443894	285
0	2752	429.191988740841	286
0	2752	429.191988740841	286
0	2752	429.191988740841	286
0	2757	430.655469256945	287
0	2757	430.655469256945	287
0	2757	430.655469256945	287
0	2771	432.038804612381	288
0	2771	432.038804612381	288
0	2771	432.038804612381	288
0	2785	433.332911817848	289
0	2785	433.332911817848	289
0	2785	433.332911817848	289
0	2787	434.457832149488	290
0	2787	434.457832149488	290
0	2787	434.457832149488	290
0	2801	435.548099430769	291
0	2801	435.548099430769	291
0	2801	435.548099430769	291
0	2815	436.73098354114	292
0	2815	436.73098354114	292
0	2815	436.73098354114	292
0	2829	438.089277317773	293
0	2829	438.089277317773	293
0	2829	438.089277317773	293
0	2834	440.025563715983	294
0	2834	440.025563715983	294
0	2834	440.025563715983	294
0	2839	441.487593738621	295
0	2839	441.487593738621	295
0	2839	441.487593738621	295
0	2853	442.983879103351	296
0	2853	442.983879103351	296
0	2853	442.983879103351	296
0	2855	444.43236848342	297
0	2855	444.43236848342	297
0	2855	444.43236848342	297
0	2869	445.465373647658	298
0	2869	445.465373647658	298
0	2869	445.465373647658	298
0	2883	446.472602075225	299
0	2883	446.472602075225	299
0	2883	446.472602075225	299
0	2885	448.026155839933	300
0	2885	448.026155839933	300
0	2885	448.026155839933	300
0	2887	449.735641479285	301
0	2887	449.735641479285	301
0	2887	449.735641479285	301
0	2901	450.737076506976	302
0	2901	450.737076506976	302
0	2901	450.737076506976	302
0	2915	452.131861557512	303
0	2915	452.131861557512	303
0	2915	452.131861557512	303
0	2920	453.138142279143	304
0	2920	453.138142279143	304
0	2920	453.138142279143	304
0	2934	454.956292189684	305
0	2934	454.956292189684	305
0	2934	454.956292189684	305
0	2948	456.603266575866	306
0	2948	456.603266575866	306
0	2948	456.603266575866	306
0	2962	458.28085916981	307
0	2962	458.28085916981	307
0	2962	458.28085916981	307
0	2976	460.063342193169	308
0	2976	460.063342193169	308
0	2976	460.063342193169	308
0	2987	461.660602306975	309
0	2987	461.660602306975	309
0	2987	461.660602306975	309
0	2989	462.917407159256	310
0	2989	462.917407159256	310
0	2989	462.917407159256	310
0	3003	464.888341435259	311
0	3003	464.888341435259	311
0	3003	464.888341435259	311
0	3017	466.103274275576	312
0	3017	466.103274275576	312
0	3017	466.103274275576	312
0	3031	468.032563843093	313
0	3031	468.032563843093	313
0	3031	468.032563843093	313
0	3033	469.716908739208	314
0	3033	469.716908739208	314
0	3033	469.716908739208	314
0	3047	471.677062745	315
0	3047	471.677062745	315
0	3047	471.677062745	315
0	3049	472.951207011034	316
0	3049	472.951207011034	316
0	3049	472.951207011034	316
0	3051	474.220211851903	317
0	3051	474.220211851903	317
0	3051	474.220211851903	317
0	3065	476.213209455394	318
0	3065	476.213209455394	318
0	3065	476.213209455394	318
0	3079	477.30481761394	319
0	3079	477.30481761394	319
0	3079	477.30481761394	319
0	3093	478.976620748434	320
0	3093	478.976620748434	320
0	3093	478.976620748434	320
0	3107	480.670057226233	321
0	3107	480.670057226233	321
0	3107	480.670057226233	321
0	3112	482.410957301296	322
0	3112	482.410957301296	322
0	3112	482.410957301296	322
0	3126	483.415948478067	323
0	3126	483.415948478067	323
0	3126	483.415948478067	323
0	3140	485.390440296875	324
0	3140	485.390440296875	324
0	3140	485.390440296875	324
0	3154	487.081271510832	325
0	3154	487.081271510832	325
0	3154	487.081271510832	325
0	3168	488.637326620547	326
0	3168	488.637326620547	326
0	3168	488.637326620547	326
0	3170	490.499351184377	327
0	3170	490.499351184377	327
0	3170	490.499351184377	327
0	3181	492.183464277098	328
0	3181	492.183464277098	328
0	3181	492.183464277098	328
0	3195	493.243181927158	329
0	3195	493.243181927158	329
0	3195	493.243181927158	329
0	3197	495.026356168585	330
0	3197	495.026356168585	330
0	3197	495.026356168585	330
0	3211	497.01244507011	331
0	3211	497.01244507011	331
0	3211	497.01244507011	331
0	3222	498.279802467003	332
0	3222	498.279802467003	332
0	3222	498.279802467003	332
0	3233	500.11150190493	333
0	3233	500.11150190493	333
0	3233	500.11150190493	333
0	3247	501.820014353869	334
0	3247	501.820014353869	334
0	3247	501.820014353869	334
0	3252	503.531661703046	335
0	3252	503.531661703046	335
0	3252	503.531661703046	335
0	3266	504.828295558719	336
0	3266	504.828295558719	336
0	3266	504.828295558719	336
0	3280	506.623190643759	337
0	3280	506.623190643759	337
0	3280	506.623190643759	337
0	3294	508.190470998436	338
0	3294	508.190470998436	338
0	3294	508.190470998436	338
0	3296	509.670049803126	339
0	3296	509.670049803126	339
0	3296	509.670049803126	339
0	3298	511.455644178464	340
0	3298	511.455644178464	340
0	3298	511.455644178464	340
0	3300	513.10880075328	341
0	3300	513.10880075328	341
0	3300	513.10880075328	341
0	3302	514.239879617262	342
0	3302	514.239879617262	342
0	3302	514.239879617262	342
0	3316	516.074186586569	343
0	3316	516.074186586569	343
0	3316	516.074186586569	343
0	3330	517.279577874838	344
0	3330	517.279577874838	344
0	3330	517.279577874838	344
0	3341	518.873343501732	345
0	3341	518.873343501732	345
0	3341	518.873343501732	345
0	3343	520.645915909231	346
0	3343	520.645915909231	346
0	3343	520.645915909231	346
0	3354	522.241304461172	347
0	3354	522.241304461172	347
0	3354	522.241304461172	347
0	3365	524.165626449304	348
0	3365	524.165626449304	348
0	3365	524.165626449304	348
0	3367	525.524693938697	349
0	3367	525.524693938697	349
0	3367	525.524693938697	349
0	3381	526.837910393046	350
0	3381	526.837910393046	350
0	3381	526.837910393046	350
0	3395	528.711528299402	351
0	3395	528.711528299402	351
0	3395	528.711528299402	351
0	3409	529.986743571262	352
0	3409	529.986743571262	352
0	3409	529.986743571262	352
0	3423	531.613443496197	353
0	3423	531.613443496197	353
0	3423	531.613443496197	353
0	3437	533.541237374095	354
0	3437	533.541237374095	354
0	3437	533.541237374095	354
0	3442	535.353604047119	355
0	3442	535.353604047119	355