version 3
run General-3-20231019-19:47:19-63521
attr configname General
attr datetime 20231019-19:47:19
attr datetimef 20231019-194719
attr experiment General
attr inifile omnetpp.ini
attr iterationvars ""
attr iterationvarsd ""
attr iterationvarsf ""
attr measurement ""
attr network Reliability
attr processid 63521
attr repetition 3
attr replication #3
attr resultdir results
attr runnumber 3
attr seedset 3
config network Reliability
config Reliability.node[*].transmissionTime "uniform(1s, 2s)"
config Reliability.node[*].delayTime "uniform(0.01s, 0.2s)"
config Reliability.node[*].lossProbability 0.3
config record-eventlog true
config sim-time-limit 1000s
config repeat 5

vector 0 Reliability.node[0] txVector ETV
vector 1 Reliability.node[1] txVector ETV
vector 2 Reliability.node[1] rxVector ETV
vector 3 Reliability.node[2] txVector ETV
vector 4 Reliability.node[2] rxVector ETV
vector 5 Reliability.node[4] txVector ETV
vector 6 Reliability.node[4] rxVector ETV
vector 7 Reliability.node[3] txVector ETV
vector 8 Reliability.node[3] rxVector ETV
vector 9 Reliability.node[5] rxVector ETV
vector 10 Reliability.node[5] e2eVector ETV
vector 11 Reliability.node[0] rxVector ETV
0	1	0.114651601831	1
0	1	0.114651601831	1
0	1	0.114651601831	1
0	9	1.822799424012	2
0	9	1.822799424012	2
0	9	1.822799424012	2
0	23	2.91635091959	3
0	23	2.91635091959	3
0	23	2.91635091959	3
0	25	4.356804642197	4
0	25	4.356804642197	4
0	25	4.356804642197	4
0	30	5.811412407154	5
0	30	5.811412407154	5
0	30	5.811412407154	5
0	44	7.199383664246	6
0	44	7.199383664246	6
0	44	7.199383664246	6
0	46	8.947541100973	7
0	46	8.947541100973	7
0	46	8.947541100973	7
0	48	10.239333874382	8
0	48	10.239333874382	8
0	48	10.239333874382	8
0	53	11.892964726848	9
0	53	11.892964726848	9
0	53	11.892964726848	9
0	55	13.347586809027	10
0	55	13.347586809027	10
0	55	13.347586809027	10
0	57	15.108165299355	11
0	57	15.108165299355	11
0	57	15.108165299355	11
0	71	16.622200353139	12
0	71	16.622200353139	12
0	71	16.622200353139	12
0	73	17.764799699488	13
0	73	17.764799699488	13
0	73	17.764799699488	13
0	84	19.007475121015	14
0	84	19.007475121015	14
0	84	19.007475121015	14
0	86	20.18353723625	15
0	86	20.18353723625	15
0	86	20.18353723625	15
0	91	21.283641580327	16
0	91	21.283641580327	16
0	91	21.283641580327	16
0	105	22.949266187914	17
0	105	22.949266187914	17
0	105	22.949266187914	17
0	119	24.315206772715	18
0	119	24.315206772715	18
0	119	24.315206772715	18
0	124	26.202104900099	19
0	124	26.202104900099	19
0	124	26.202104900099	19
0	126	28.094498092375	20
0	126	28.094498092375	20
0	126	28.094498092375	20
0	128	29.133416190111	21
0	128	29.133416190111	21
0	128	29.133416190111	21
0	130	30.547543111323	22
0	130	30.547543111323	22
0	130	30.547543111323	22
0	132	31.804749489362	23
0	132	31.804749489362	23
0	132	31.804749489362	23
0	134	33.535457615574	24
0	134	33.535457615574	24
0	134	33.535457615574	24
0	148	35.433194644815	25
0	148	35.433194644815	25
0	148	35.433194644815	25
0	162	37.12517215388	26
0	162	37.12517215388	26
0	162	37.12517215388	26
0	176	38.663635845595	27
0	176	38.663635845595	27
0	176	38.663635845595	27
0	190	40.146132884148	28
0	190	40.146132884148	28
0	190	40.146132884148	28
0	204	41.939895155673	29
0	204	41.939895155673	29
0	204	41.939895155673	29
0	218	43.456679523057	30
0	218	43.456679523057	30
0	218	43.456679523057	30
0	220	44.582500562836	31
0	220	44.582500562836	31
0	220	44.582500562836	31
0	231	46.018857649593	32
0	231	46.018857649593	32
0	231	46.018857649593	32
0	233	47.049786845986	33
0	233	47.049786845986	33
0	233	47.049786845986	33
0	235	48.529294157233	34
0	235	48.529294157233	34
0	235	48.529294157233	34
0	237	49.803931626789	35
0	237	49.803931626789	35
0	237	49.803931626789	35
0	239	51.265479780566	36
0	239	51.265479780566	36
0	239	51.265479780566	36
0	253	52.341267985357	37
0	253	52.341267985357	37
0	253	52.341267985357	37
0	267	53.751588192368	38
0	267	53.751588192368	38
0	267	53.751588192368	38
0	281	55.590491599934	39
0	281	55.590491599934	39
0	281	55.590491599934	39
0	286	57.262061848603	40
0	286	57.262061848603	40
0	286	57.262061848603	40
0	300	58.828443324026	41
0	300	58.828443324026	41
0	300	58.828443324026	41
0	314	60.118928215299	42
0	314	60.118928215299	42
0	314	60.118928215299	42
0	316	61.667256232184	43
0	316	61.667256232184	43
0	316	61.667256232184	43
0	321	62.740173321749	44
0	321	62.740173321749	44
0	321	62.740173321749	44
0	335	64.369015473473	45
0	335	64.369015473473	45
0	335	64.369015473473	45
0	337	65.471149699596	46
0	337	65.471149699596	46
0	337	65.471149699596	46
0	339	67.193591902099	47
0	339	67.193591902099	47
0	339	67.193591902099	47
0	353	68.403298341736	48
0	353	68.403298341736	48
0	353	68.403298341736	48
0	355	69.643122100804	49
0	355	69.643122100804	49
0	355	69.643122100804	49
0	357	71.180556477115	50
0	357	71.180556477115	50
0	357	71.180556477115	50
0	359	72.685740945928	51
0	359	72.685740945928	51
0	359	72.685740945928	51
0	373	73.988560780252	52
0	373	73.988560780252	52
0	373	73.988560780252	52
0	387	75.402179769774	53
0	387	75.402179769774	53
0	387	75.402179769774	53
0	389	76.975040480097	54
0	389	76.975040480097	54
0	389	76.975040480097	54
0	403	78.195714133627	55
0	403	78.195714133627	55
0	403	78.195714133627	55
0	417	79.487645316006	56
0	417	79.487645316006	56
0	417	79.487645316006	56
0	431	80.531641572549	57
0	431	80.531641572549	57
0	431	80.531641572549	57
0	433	82.261615320177	58
0	433	82.261615320177	58
0	433	82.261615320177	58
0	447	83.807018885457	59
0	447	83.807018885457	59
0	447	83.807018885457	59
0	461	84.888809624895	60
0	461	84.888809624895	60
0	461	84.888809624895	60
0	475	86.21530320153	61
0	475	86.21530320153	61
0	475	86.21530320153	61
0	477	87.773307286737	62
0	477	87.773307286737	62
0	477	87.773307286737	62
0	491	89.616055823465	63
0	491	89.616055823465	63
0	491	89.616055823465	63
0	499	90.789854269776	64
0	499	90.789854269776	64
0	499	90.789854269776	64
0	513	92.775756035301	65
0	513	92.775756035301	65
0	513	92.775756035301	65
0	527	94.071182300405	66
0	527	94.071182300405	66
0	527	94.071182300405	66
0	541	95.340159084716	67
0	541	95.340159084716	67
0	541	95.340159084716	67
0	543	96.396045233191	68
0	543	96.396045233191	68
0	543	96.396045233191	68
0	545	97.822943826507	69
0	545	97.822943826507	69
0	545	97.822943826507	69
0	556	99.501183063791	70
0	556	99.501183063791	70
0	556	99.501183063791	70
0	570	101.440640948548	71
0	570	101.440640948548	71
0	570	101.440640948548	71
0	578	102.834182396133	72
0	578	102.834182396133	72
0	578	102.834182396133	72
0	592	103.958517640198	73
0	592	103.958517640198	73
0	592	103.958517640198	73
0	603	105.403518432586	74
0	603	105.403518432586	74
0	603	105.403518432586	74
0	605	106.565098603091	75
0	605	106.565098603091	75
0	605	106.565098603091	75
0	619	108.44005239459	76
0	619	108.44005239459	76
0	619	108.44005239459	76
0	621	110.352950231938	77
0	621	110.352950231938	77
0	621	110.352950231938	77
0	635	112.006353480809	78
0	635	112.006353480809	78
0	635	112.006353480809	78
0	640	113.943207932937	79
0	640	113.943207932937	79
0	640	113.943207932937	79
0	654	115.181033552227	80
0	654	115.181033552227	80
0	654	115.181033552227	80
0	665	116.857280363164	81
0	665	116.857280363164	81
0	665	116.857280363164	81
0	679	118.575140510987	82
0	679	118.575140510987	82
0	679	118.575140510987	82
0	684	119.940895859686	83
0	684	119.940895859686	83
0	684	119.940895859686	83
0	698	121.270025515997	84
0	698	121.270025515997	84
0	698	121.270025515997	84
0	700	122.815983480376	85
0	700	122.815983480376	85
0	700	122.815983480376	85
0	714	124.743423292015	86
0	714	124.743423292015	86
0	714	124.743423292015	86
0	728	126.094926658387	87
0	728	126.094926658387	87
0	728	126.094926658387	87
0	730	127.144650823272	88
0	730	127.144650823272	88
0	730	127.144650823272	88
0	744	128.523666912525	89
0	744	128.523666912525	89
0	744	128.523666912525	89
0	758	129.709960101939	90
0	758	129.709960101939	90
0	758	129.709960101939	90
0	769	130.857016367906	91
0	769	130.857016367906	91
0	769	130.857016367906	91
0	777	131.935155656955	92
0	777	131.935155656955	92
0	777	131.935155656955	92
0	779	133.098162349148	93
0	779	133.098162349148	93
0	779	133.098162349148	93
0	781	134.718964544891	94
0	781	134.718964544891	94
0	781	134.718964544891	94
0	795	136.262995760024	95
0	795	136.262995760024	95
0	795	136.262995760024	95
0	809	137.512997602879	96
0	809	137.512997602879	96
0	809	137.512997602879	96
0	823	139.420702501967	97
0	823	139.420702501967	97
0	823	139.420702501967	97
0	825	141.077138802804	98
0	825	141.077138802804	98
0	825	141.077138802804	98
0	839	142.134286430966	99
0	839	142.134286430966	99
0	839	142.134286430966	99
0	844	143.469720147852	100
0	844	143.469720147852	100
0	844	143.469720147852	100
0	858	145.279939014068	101
0	858	145.279939014068	101
0	858	145.279939014068	101
0	860	146.648892493056	102
0	860	146.648892493056	102
0	860	146.648892493056	102
0	862	148.337696845479	103
0	862	148.337696845479	103
0	862	148.337696845479	103
0	876	149.716571036096	104
0	876	149.716571036096	104
0	876	149.716571036096	104
0	878	151.177151458173	105
0	878	151.177151458173	105
0	878	151.177151458173	105
0	892	152.863344059161	106
0	892	152.863344059161	106
0	892	152.863344059161	106
0	906	153.887636413167	107
0	906	153.887636413167	107
0	906	153.887636413167	107
0	908	155.69087358082	108
0	908	155.69087358082	108
0	908	155.69087358082	108
0	922	156.717304986737	109
0	922	156.717304986737	109
0	922	156.717304986737	109
0	936	158.546113712083	110
0	936	158.546113712083	110
0	936	158.546113712083	110
0	950	159.804180640097	111
0	950	159.804180640097	111
0	950	159.804180640097	111
0	964	161.466472515439	112
0	964	161.466472515439	112
0	964	161.466472515439	112
0	978	162.54193641485	113
0	978	162.54193641485	113
0	978	162.54193641485	113
0	992	164.491072446176	114
0	992	164.491072446176	114
0	992	164.491072446176	114
0	994	166.116970239741	115
0	994	166.116970239741	115
0	994	166.116970239741	115
0	1005	167.739727287389	116
0	1005	167.739727287389	116
0	1005	167.739727287389	116
0	1019	169.687521647498	117
0	1019	169.687521647498	117
0	1019	169.687521647498	117
0	1021	170.888358383974	118
0	1021	170.888358383974	118
0	1021	170.888358383974	118
0	1035	172.278322629234	119
0	1035	172.278322629234	119
0	1035	172.278322629234	119
0	1040	173.758136695786	120
0	1040	173.758136695786	120
0	1040	173.758136695786	120
0	1042	174.909321618802	121
0	1042	174.909321618802	121
0	1042	174.909321618802	121
0	1056	176.83312526329	122
0	1056	176.83312526329	122
0	1056	176.83312526329	122
0	1061	178.409553805436	123
0	1061	178.409553805436	123
0	1061	178.409553805436	123
0	1075	179.690739429393	124
0	1075	179.690739429393	124
0	1075	179.690739429393	124
0	1089	181.018962801271	125
0	1089	181.018962801271	125
0	1089	181.018962801271	125
0	1103	182.661270972877	126
0	1103	182.661270972877	126
0	1103	182.661270972877	126
0	1114	184.192139271717	127
0	1114	184.192139271717	127
0	1114	184.192139271717	127
0	1116	185.864492654405	128
0	1116	185.864492654405	128
0	1116	185.864492654405	128
0	1130	187.524880515715	129
0	1130	187.524880515715	129
0	1130	187.524880515715	129
0	1144	189.328711706983	130
0	1144	189.328711706983	130
0	1144	189.328711706983	130
0	1158	190.679253822263	131
0	1158	190.679253822263	131
0	1158	190.679253822263	131
0	1172	192.2895153275	132
0	1172	192.2895153275	132
0	1172	192.2895153275	132
0	1186	194.008550878452	133
0	1186	194.008550878452	133
0	1186	194.008550878452	133
0	1200	195.19028206619	134
0	1200	195.19028206619	134
0	1200	195.19028206619	134
0	1214	196.308822724107	135
0	1214	196.308822724107	135
0	1214	196.308822724107	135
0	1228	197.743715786212	136
0	1228	197.743715786212	136
0	1228	197.743715786212	136
0	1242	199.624325410998	137
0	1242	199.624325410998	137
0	1242	199.624325410998	137
0	1256	201.184180859779	138
0	1256	201.184180859779	138
0	1256	201.184180859779	138
0	1270	203.054264532938	139
0	1270	203.054264532938	139
0	1270	203.054264532938	139
0	1284	204.838695764379	140
0	1284	204.838695764379	140
0	1284	204.838695764379	140
0	1298	206.177799645183	141
0	1298	206.177799645183	141
0	1298	206.177799645183	141
0	1312	208.161846342101	142
0	1312	208.161846342101	142
0	1312	208.161846342101	142
0	1326	209.265474769357	143
0	1326	209.265474769357	143
0	1326	209.265474769357	143
0	1340	210.54572034122	144
0	1340	210.54572034122	144
0	1340	210.54572034122	144
0	1351	211.644717992121	145
0	1351	211.644717992121	145
0	1351	211.644717992121	145
0	1359	213.268499051524	146
0	1359	213.268499051524	146
0	1359	213.268499051524	146
0	1364	214.454411325115	147
0	1364	214.454411325115	147
0	1364	214.454411325115	147
0	1369	216.244591562147	148
0	1369	216.244591562147	148
0	1369	216.244591562147	148
0	1383	217.66686739733	149
0	1383	217.66686739733	149
0	1383	217.66686739733	149
0	1391	219.049200573075	150
0	1391	219.049200573075	150
0	1391	219.049200573075	150
0	1405	220.974184208387	151
0	1405	220.974184208387	151
0	1405	220.974184208387	151
0	1407	222.595639434946	152
0	1407	222.595639434946	152
0	1407	222.595639434946	152
0	1421	224.50181529678	153
0	1421	224.50181529678	153
0	1421	224.50181529678	153
0	1435	225.816918800655	154
0	1435	225.816918800655	154
0	1435	225.816918800655	154
0	1449	227.513747065864	155
0	1449	227.513747065864	155
0	1449	227.513747065864	155
0	1463	229.152463875316	156
0	1463	229.152463875316	156
0	1463	229.152463875316	156
0	1477	230.549646770885	157
0	1477	230.549646770885	157
0	1477	230.549646770885	157
0	1479	231.878168807203	158
0	1479	231.878168807203	158
0	1479	231.878168807203	158
0	1481	233.153843366146	159
0	1481	233.153843366146	159
0	1481	233.153843366146	159
0	1495	234.402242025431	160
0	1495	234.402242025431	160
0	1495	234.402242025431	160
0	1503	235.576105528116	161
0	1503	235.576105528116	161
0	1503	235.576105528116	161
0	1517	237.320147245262	162
0	1517	237.320147245262	162
0	1517	237.320147245262	162
0	1531	238.81016937045	163
0	1531	238.81016937045	163
0	1531	238.81016937045	163
0	1536	239.833304634388	164
0	1536	239.833304634388	164
0	1536	239.833304634388	164
0	1550	241.681422858569	165
0	1550	241.681422858569	165
0	1550	241.681422858569	165
0	1555	242.897381574917	166
0	1555	242.897381574917	166
0	1555	242.897381574917	166
0	1557	243.920290231542	167
0	1557	243.920290231542	167
0	1557	243.920290231542	167
0	1565	245.313215263258	168
0	1565	245.313215263258	168
0	1565	245.313215263258	168
0	1567	246.411437081942	169
0	1567	246.411437081942	169
0	1567	246.411437081942	169
0	1569	247.56035935653	170
0	1569	247.56035935653	170
0	1569	247.56035935653	170
0	1571	248.822009094363	171
0	1571	248.822009094363	171
0	1571	248.822009094363	171
0	1585	250.734975859594	172
0	1585	250.734975859594	172
0	1585	250.734975859594	172
0	1587	251.943420768321	173
0	1587	251.943420768321	173
0	1587	251.943420768321	173
0	1601	253.503812516179	174
0	1601	253.503812516179	174
0	1601	253.503812516179	174
0	1603	255.351409103094	175
0	1603	255.351409103094	175
0	1603	255.351409103094	175
0	1605	257.284909982305	176
0	1605	257.284909982305	176
0	1605	257.284909982305	176
0	1619	258.48040613772	177
0	1619	258.48040613772	177
0	1619	258.48040613772	177
0	1621	260.360352427537	178
0	1621	260.360352427537	178
0	1621	260.360352427537	178
0	1635	262.059051164497	179
0	1635	262.059051164497	179
0	1635	262.059051164497	179
0	1646	264.000803773362	180
0	1646	264.000803773362	180
0	1646	264.000803773362	180
0	1660	265.246347074235	181
0	1660	265.246347074235	181
0	1660	265.246347074235	181
0	1665	266.998255352328	182
0	1665	266.998255352328	182
0	1665	266.998255352328	182
0	1676	268.411000736129	183
0	1676	268.411000736129	183
0	1676	268.411000736129	183
0	1690	269.432507451928	184
0	1690	269.432507451928	184
0	1690	269.432507451928	184
0	1704	270.898681729638	185
0	1704	270.898681729638	185
0	1704	270.898681729638	185
0	1718	272.810132178084	186
0	1718	272.810132178084	186
0	1718	272.810132178084	186
0	1720	273.819316503896	187
0	1720	273.819316503896	187
0	1720	273.819316503896	187
0	1722	275.218602535852	188
0	1722	275.218602535852	188
0	1722	275.218602535852	188
0	1730	276.340513396381	189
0	1730	276.340513396381	189
0	1730	276.340513396381	189
0	1744	278.233042239748	190
0	1744	278.233042239748	190
0	1744	278.233042239748	190
0	1755	279.251654030128	191
0	1755	279.251654030128	191
0	1755	279.251654030128	191
0	1769	280.555832600991	192
0	1769	280.555832600991	192
0	1769	280.555832600991	192
0	1783	282.491722798046	193
0	1783	282.491722798046	193
0	1783	282.491722798046	193
0	1797	284.211294999417	194
0	1797	284.211294999417	194
0	1797	284.211294999417	194
0	1811	285.369459354157	195
0	1811	285.369459354157	195
0	1811	285.369459354157	195
0	1813	286.812124166476	196
0	1813	286.812124166476	196
0	1813	286.812124166476	196
0	1827	288.755241274206	197
0	1827	288.755241274206	197
0	1827	288.755241274206	197
0	1841	290.118466731465	198
0	1841	290.118466731465	198
0	1841	290.118466731465	198
0	1843	291.871718771594	199
0	1843	291.871718771594	199
0	1843	291.871718771594	199
0	1845	293.547203456588	200
0	1845	293.547203456588	200
0	1845	293.547203456588	200
0	1853	295.087501128508	201
0	1853	295.087501128508	201
0	1853	295.087501128508	201
0	1855	296.490387661919	202
0	1855	296.490387661919	202
0	1855	296.490387661919	202
0	1869	298.246065810161	203
0	1869	298.246065810161	203
0	1869	298.246065810161	203
0	1883	299.317991973903	204
0	1883	299.317991973903	204
0	1883	299.317991973903	204
0	1888	300.954144324014	205
0	1888	300.954144324014	205
0	1888	300.954144324014	205
0	1896	302.237365586288	206
0	1896	302.237365586288	206
0	1896	302.237365586288	206
0	1898	303.935361526511	207
0	1898	303.935361526511	207
0	1898	303.935361526511	207
0	1903	305.032816213859	208
0	1903	305.032816213859	208
0	1903	305.032816213859	208
0	1905	306.656529495563	209
0	1905	306.656529495563	209
0	1905	306.656529495563	209
0	1913	308.275516659325	210
0	1913	308.275516659325	210
0	1913	308.275516659325	210
0	1915	310.11980631326	211
0	1915	310.11980631326	211
0	1915	310.11980631326	211
0	1929	311.967067615433	212
0	1929	311.967067615433	212
0	1929	311.967067615433	212
0	1943	313.897751121387	213
0	1943	313.897751121387	213
0	1943	313.897751121387	213
0	1945	315.889457081748	214
0	1945	315.889457081748	214
0	1945	315.889457081748	214
0	1959	317.835653037369	215
0	1959	317.835653037369	215
0	1959	317.835653037369	215
0	1961	319.815245770454	216
0	1961	319.815245770454	216
0	1961	319.815245770454	216
0	1975	321.32369219286	217
0	1975	321.32369219286	217
0	1975	321.32369219286	217
0	1986	323.150025465829	218
0	1986	323.150025465829	218
0	1986	323.150025465829	218
0	1988	324.400246871007	219
0	1988	324.400246871007	219
0	1988	324.400246871007	219
0	1990	325.452916513034	220
0	1990	325.452916513034	220
0	1990	325.452916513034	220
0	1995	327.372417515446	221
0	1995	327.372417515446	221
0	1995	327.372417515446	221
0	2009	329.242833557841	222
0	2009	329.242833557841	222
0	2009	329.242833557841	222
0	2023	331.176891641761	223
0	2023	331.176891641761	223
0	2023	331.176891641761	223
0	2037	333.160317299492	224
0	2037	333.160317299492	224
0	2037	333.160317299492	224
0	2042	334.355812379695	225
0	2042	334.355812379695	225
0	2042	334.355812379695	225
0	2056	336.07152107202	226
0	2056	336.07152107202	226
0	2056	336.07152107202	226
0	2061	337.755284307595	227
0	2061	337.755284307595	227
0	2061	337.755284307595	227
0	2063	338.997889192845	228
0	2063	338.997889192845	228
0	2063	338.997889192845	228
0	2065	340.297788450797	229
0	2065	340.297788450797	229
0	2065	340.297788450797	229
0	2067	341.52841180244	230
0	2067	341.52841180244	230
0	2067	341.52841180244	230
0	2081	343.224964780803	231
0	2081	343.224964780803	231
0	2081	343.224964780803	231
0	2095	344.32788364247	232
0	2095	344.32788364247	232
0	2095	344.32788364247	232
0	2109	345.59282978212	233
0	2109	345.59282978212	233
0	2109	345.59282978212	233
0	2111	347.416952178418	234
0	2111	347.416952178418	234
0	2111	347.416952178418	234
0	2125	348.488410082949	235
0	2125	348.488410082949	235
0	2125	348.488410082949	235
0	2130	350.030721653323	236
0	2130	350.030721653323	236
0	2130	350.030721653323	236
0	2132	351.336949708476	237
0	2132	351.336949708476	237
0	2132	351.336949708476	237
0	2146	352.743565224181	238
0	2146	352.743565224181	238
0	2146	352.743565224181	238
0	2148	354.675832347083	239
0	2148	354.675832347083	239
0	2148	354.675832347083	239
0	2162	355.719292925508	240
0	2162	355.719292925508	240
0	2162	355.719292925508	240
0	2176	357.292604854633	241
0	2176	357.292604854633	241
0	2176	357.292604854633	241
0	2178	358.688319591642	242
0	2178	358.688319591642	242
0	2178	358.688319591642	242
0	2192	360.340379051468	243
0	2192	360.340379051468	243
0	2192	360.340379051468	243
0	2206	362.333784014289	244
0	2206	362.333784014289	244
0	2206	362.333784014289	244
0	2208	363.825681453407	245
0	2208	363.825681453407	245
0	2208	363.825681453407	245
0	2222	364.998444918612	246
0	2222	364.998444918612	246
0	2222	364.998444918612	246
0	2233	366.759448914159	247
0	2233	366.759448914159	247
0	2233	366.759448914159	247
0	2235	368.552873764722	248
0	2235	368.552873764722	248
0	2235	368.552873764722	248
0	2237	370.450667469366	249
0	2237	370.450667469366	249
0	2237	370.450667469366	249
0	2251	371.623627268313	250
0	2251	371.623627268313	250
0	2251	371.623627268313	250
0	2265	373.305135831772	251
0	2265	373.305135831772	251
0	2265	373.305135831772	251
0	2267	374.414211345673	252
0	2267	374.414211345673	252
0	2267	374.414211345673	252
0	2269	375.619181552738	253
0	2269	375.619181552738	253
0	2269	375.619181552738	253
0	2283	376.864789008232	254
0	2283	376.864789008232	254
0	2283	376.864789008232	254
0	2285	377.970970175065	255
0	2285	377.970970175065	255
0	2285	377.970970175065	255
0	2299	379.911851661581	256
0	2299	379.911851661581	256
0	2299	379.911851661581	256
0	2313	381.433785511715	257
0	2313	381.433785511715	257
0	2313	381.433785511715	257
0	2327	382.593703374801	258
0	2327	382.593703374801	258
0	2327	382.593703374801	258
0	2341	384.066707860281	259
0	2341	384.066707860281	259
0	2341	384.066707860281	259
0	2355	385.074444196488	260
0	2355	385.074444196488	260
0	2355	385.074444196488	260
0	2369	386.924066467512	261
0	2369	386.924066467512	261
0	2369	386.924066467512	261
0	2371	387.962684871697	262
0	2371	387.962684871697	262
0	2371	387.962684871697	262
0	2373	389.552164396805	263
0	2373	389.552164396805	263
0	2373	389.552164396805	263
0	2375	390.972764690941	264
0	2375	390.972764690941	264
0	2375	390.972764690941	264
0	2389	392.389570316601	265
0	2389	392.389570316601	265
0	2389	392.389570316601	265
0	2391	393.639706897385	266
0	2391	393.639706897385	266
0	2391	393.639706897385	266
0	2402	394.951692845508	267
0	2402	394.951692845508	267
0	2402	394.951692845508	267
0	2404	396.724612162517	268
0	2404	396.724612162517	268
0	2404	396.724612162517	268
0	2406	398.584332333713	269
0	2406	398.584332333713	269
0	2406	398.584332333713	269
0	2414	400.119238343391	270
0	2414	400.119238343391	270
0	2414	400.119238343391	270
0	2428	402.074579192161	271
0	2428	402.074579192161	271
0	2428	402.074579192161	271
0	2442	403.358924979412	272
0	2442	403.358924979412	272
0	2442	403.358924979412	272
0	2456	405.358100820168	273
0	2456	405.358100820168	273
0	2456	405.358100820168	273
0	2458	407.28201385245	274
0	2458	407.28201385245	274
0	2458	407.28201385245	274
0	2472	408.649034715093	275
0	2472	408.649034715093	275
0	2472	408.649034715093	275
0	2486	409.972928174141	276
0	2486	409.972928174141	276
0	2486	409.972928174141	276
0	2500	411.43167250261	277
0	2500	411.43167250261	277
0	2500	411.43167250261	277
0	2514	412.483472673989	278
0	2514	412.483472673989	278
0	2514	412.483472673989	278
0	2516	413.956038366373	279
0	2516	413.956038366373	279
0	2516	413.956038366373	279
0	2521	415.345782118685	280
0	2521	415.345782118685	280
0	2521	415.345782118685	280
0	2535	417.021234408089	281
0	2535	417.021234408089	281
0	2535	417.021234408089	281
0	2549	418.89052482189	282
0	2549	418.89052482189	282
0	2549	418.89052482189	282
0	2554	420.32503927925	283
0	2554	420.32503927925	283
0	2554	420.32503927925	283
0	2565	422.114365039229	284
0	2565	422.114365039229	284
0	2565	422.114365039229	284
0	2567	424.100001263035	285
0	2567	424.100001263035	285
0	2567	424.100001263035	285
0	2581	425.170828481273	286
0	2581	425.170828481273	286
0	2581	425.170828481273	286
0	2586	426.635031074819	287
0	2586	426.635031074819	287
0	2586	426.635031074819	287
0	2600	427.921169207266	288
0	2600	427.921169207266	288
0	2600	427.921169207266	288
0	2614	429.050064534482	289
0	2614	429.050064534482	289
0	2614	429.050064534482	289
0	2622	430.274914335294	290
0	2622	430.274914335294	290
0	2622	430.274914335294	290
0	2636	431.912969062638	291
0	2636	431.912969062638	291
0	2636	431.912969062638	291
0	2650	433.208232680869	292
0	2650	433.208232680869	292
0	2650	433.208232680869	292
0	2664	434.882674901115	293
0	2664	434.882674901115	293
0	2664	434.882674901115	293
0	2678	435.971563431734	294
0	2678	435.971563431734	294
0	2678	435.971563431734	294
0	2692	437.332278698051	295
0	2692	437.332278698051	295
0	2692	437.332278698051	295
0	2694	438.760224431121	296
0	2694	438.760224431121	296
0	2694	438.760224431121	296
0	2699	440.194668819496	297
0	2699	440.194668819496	297
0	2699	440.194668819496	297
0	2713	442.04078224471	298
0	2713	442.04078224471	298
0	2713	442.04078224471	298
0	2715	443.827396497663	299
0	2715	443.827396497663	299
0	2715	443.827396497663	299
0	2729	445.064586114205	300
0	2729	445.064586114205	300
0	2729	445.064586114205	300
0	2731	447.017711470902	301
0	2731	447.017711470902	301
0	2731	447.017711470902	301
0	2745	448.861681178745	302
0	2745	448.861681178745	302
0	2745	448.861681178745	302
0	2759	450.729491829706	303
0	2759	450.729491829706	303
0	2759	450.729491829706	303
0	2761	452.242395779185	304
0	2761	452.242395779185	304
0	2761	452.242395779185	304
0	2775	454.093387268784	305
0	2775	454.093387268784	305
0	2775	454.093387268784	305
0	2789	455.839524649617	306
0	2789	455.839524649617	306
0	2789	455.839524649617	306
0	2791	457.261617791441	307
0	2791	457.261617791441	307
0	2791	457.261617791441	307
0	2805	459.249719817492	308
0	2805	459.249719817492	308
0	2805	459.249719817492	308
0	2819	461.041003298548	309
0	2819	461.041003298548	309
0	2819	461.041003298548	309
0	2833	462.645047700101	310
0	2833	462.645047700101	310
0	2833	462.645047700101	310
0	2847	464.612140771303	311
0	2847	464.612140771303	311
0	2847	464.612140771303	311
0	2861	466.536383557202	312
0	2861	466.536383557202	312
0	2861	466.536383557202	312
0	2875	468.509137964876	313
0	2875	468.509137964876	313
0	2875	468.509137964876	313
0	2889	469.600659974686	314
0	2889	469.600659974686	314
0	2889	469.600659974686	314
0	2903	471.247033642207	315
0	2903	471.247033642207	315
0	2903	471.247033642207	315
0	2917	473.097942760748	316
0	2917	473.097942760748	316
0	2917	473.097942760748	316
0	2931	474.779786843875	317
0	2931	474.779786843875	317
0	2931	474.779786843875	317
0	2933	476.399865604307	318
0	2933	476.399865604307	318
0	2933	476.399865604307	318
0	2947	478.262374328751	319
0	2947	478.262374328751	319
0	2947	478.262374328751	319
0	2961	480.078123604016	320
0	2961	480.078123604016	320
0	2961	480.078123604016	320
0	2963	481.174329896526	321
0	2963	481.174329896526	321
0	2963	481.174329896526	321
0	2965	482.419234466109	322
0	2965	482.419234466109	322
0	2965	482.419234466109	322
0	2967	483.839838130934	323
0	2967	483.839838130934	323
0	2967	483.839838130934	323
0	2981	485.13825801371	324
0	2981	485.13825801371	324
0	2981	485.13825801371	324
0	2983	487.041108947316	325
0	2983	487.041108947316	325
0	2983	487.041108947316	325
0	2997	488.775087565485	326
0	2997	488.775087565485	326
0	2997	488.775087565485	326
0	3005	489.926425015157	327
0	3005	489.926425015157	327
0	3005	489.926425015157	327
0	3019	490.957318120705	328
0	3019	490.957318120705	328
0	3019	490.957318120705	328
0	3024	492.39229885938	329
0	3024	492.39229885938	329
0	3024	492.39229885938	329
0	3026	493.593943890951	330
0	3026	493.593943890951	330
0	3026	493.593943890951	330
0	3028	494.74127930526	331
0	3028	494.74127930526	331
0	3028	494.74127930526	331
0	3036	496.673563313506	332
0	3036	496.673563313506	332
0	3036	496.673563313506	332
0	3038	498.513326775118	333
0	3038	498.513326775118	333
0	3038	498.513326775118	333
0	3040	500.262346836108	334
0	3040	500.262346836108	334
0	3040	500.262346836108	334
0	3042	502.133541648112	335
0	3042	502.133541648112	335
0	3042	502.133541648112	335
0	3044	503.226858527468	336
0	3044	503.226858527468	336
0	3044	503.226858527468	336
0	3046	505.014113294262	337
0	3046	505.014113294262	337
0	3046	505.014113294262	337
0	3060	506.129882234916	338
0	3060	506.129882234916	338
0	3060	506.129882234916	338
0	3065	507.932818288285	339
0	3065	507.932818288285	339
0	3065	507.932818288285	339
0	3067	509.770980239682	340
0	3067	509.770980239682	340
0	3067	509.770980239682	340
0	3069	510.814372465549	341
0	3069	510.814372465549	341
0	3069	510.814372465549	341
0	3083	512.696891133742	342
0	3083	512.696891133742	342
0	3083	512.696891133742	342
0	3097	513.98939499196	343
0	3097	513.98939499196	343
0	3097	513.98939499196	343
0	3099	515.149607828654	344
0	3099	515.149607828654	344
0	3099	515.149607828654	344
0	3101	516.304031087853	345
0	3101	516.304031087853	345
0	3101	516.304031087853	345
0	3106	518.067876699915	346
0	3106	518.067876699915	346
0	3106	518.067876699915	346
0	3111	519.73008290429	347
0	3111	519.73008290429	347
0	3111	519.73008290429	347
0	3125	521.363648651935	348
0	3125	521.363648651935	348
0	3125	521.363648651935	348
0	3139	522.616874882554	349
0	3139	522.616874882554	349
0	3139	522.616874882554	349
0	3141	524.476943651981	350
0	3141	524.476943651981	350
0	3141	524.476943651981	350
0	3155	526.154238051105	351
0	3155	526.154238051105	351
0	3155	526.154238051105	351
0	3166	527.627686553936	352
0	3166	527.627686553936	352
0	3166	527.627686553936	352
0	3180	529.202399027137	353
0	3180	529.202399027137	353
0	3180	529.202399027137	353
0	3194	531.144609576626	354
0	3194	531.144609576626	354
0	3194	531.144609576626	354
0	3208	532.848270275699	355
0	3208	532.848270275699	355
0	3208	532.848270275699	355
0	3222	534.719150229659	356